# Moment                
# CofR                  : (4.9746127460000000e-01 -1.6718957440000001e-02 1.2500000000000000e-01)
#
# Time                  	(total_x total_y total_z)	(pressure_x pressure_y pressure_z)	(viscous_x viscous_y viscous_z)
0.01                    	(-7.1944194637989707e+00 -6.6563902137086323e-02 6.7045939587333390e+00)	(-7.1944232337775702e+00 -6.6477805385491751e-02 6.7046073364967063e+00)	(3.7699785995002508e-06 -8.6096751594567748e-05 -1.3377763367609912e-05)
0.02                    	(8.8152742121416272e-01 -6.6084146573140907e-04 -8.2374555994824639e-01)	(8.8152155617536054e-01 -5.7385222710851962e-04 -8.2373020687015297e-01)	(5.8650388021875777e-06 -8.6989238622889409e-05 -1.5353078093374439e-05)
0.03                    	(1.1848704047607328e-01 3.4863800632621171e-04 -1.2593814381239665e-01)	(1.1848258874148979e-01 4.3186953880440808e-04 -1.2592394367463644e-01)	(4.4517345834972539e-06 -8.3231532478196386e-05 -1.4200137760214841e-05)
0.04                    	(2.3667781972338695e-02 -1.6022959561872640e-03 -3.5613991175876450e-02)	(2.3663840883504778e-02 -1.5212268038641390e-03 -3.5600401741947688e-02)	(3.9410888339149107e-06 -8.1069152323125053e-05 -1.3589433928765012e-05)
0.05                    	(2.0370499366822184e-02 -2.3297398617453560e-03 -3.1139203571680398e-02)	(2.0366799578319921e-02 -2.2498641717525678e-03 -3.1126011315452659e-02)	(3.6997885022635638e-06 -7.9875689992788047e-05 -1.3192256227740665e-05)
0.06                    	(1.5937830434223296e-02 -2.7039429143310440e-03 -2.6550840631929130e-02)	(1.5934412184698075e-02 -2.6250429639156198e-03 -2.6538060454904911e-02)	(3.4182495252222247e-06 -7.8899950415424100e-05 -1.2780177024218094e-05)
0.07                    	(1.4678025969512563e-02 -2.8932603063041617e-03 -2.4830986967362134e-02)	(1.4674903436503493e-02 -2.8153950193846164e-03 -2.4818643293307213e-02)	(3.1225330090703321e-06 -7.7865286919545076e-05 -1.2343674054920170e-05)
0.08                    	(1.3783597119954392e-02 -3.1280039362658980e-03 -2.3502243920017356e-02)	(1.3780612696910843e-02 -3.0512005995901371e-03 -2.3490156170694838e-02)	(2.9844230435489570e-06 -7.6803336675761071e-05 -1.2087749322517670e-05)
0.09                    	(1.3165765973041834e-02 -3.3902134547244014e-03 -2.2482833872896468e-02)	(1.3162834889625391e-02 -3.3143906604709899e-03 -2.2470914291653776e-02)	(2.9310834164428591e-06 -7.5822794253411298e-05 -1.1919581242693291e-05)
0.1                     	(1.1034414435309770e-02 -3.6712930929989297e-03 -2.0015090720121986e-02)	(1.1031566299150412e-02 -3.5963750264421486e-03 -2.0003379174205436e-02)	(2.8481361593583427e-06 -7.4918066556781086e-05 -1.1711545916547775e-05)
0.11                    	(6.9806613361302295e-03 -3.8996758027042399e-03 -1.6112617392125363e-02)	(6.9778521968146354e-03 -3.8253477372519932e-03 -1.6101023515072078e-02)	(2.8091393155943972e-06 -7.4328065452246606e-05 -1.1593877053283231e-05)
0.12                    	(8.5927236482811475e-03 -3.9072689849922772e-03 -1.7305777630279406e-02)	(8.5899720542575962e-03 -3.8333319174981557e-03 -1.7294297392548993e-02)	(2.7515940235514888e-06 -7.3937067494121546e-05 -1.1480237730414026e-05)
0.13                    	(9.8821298709020761e-03 -3.9863678041164499e-03 -1.8167230287715889e-02)	(9.8794341999977001e-03 -3.9130775971323696e-03 -1.8155868164324594e-02)	(2.6956709043766228e-06 -7.3290206984079952e-05 -1.1362123391295752e-05)
0.14                    	(9.8586762034135328e-03 -4.0385345490984150e-03 -1.8031768954567016e-02)	(9.8559884977063514e-03 -3.9658280233107529e-03 -1.8020464967912445e-02)	(2.6877057071808040e-06 -7.2706525787661800e-05 -1.1303986654571197e-05)
0.15                    	(1.0228015017865400e-02 -4.0474434708572182e-03 -1.8339212827345418e-02)	(1.0225280662727151e-02 -3.9751649629228012e-03 -1.8327888136878877e-02)	(2.7343551382498757e-06 -7.2278507934416927e-05 -1.1324690466540104e-05)
0.16                    	(1.1778608753405511e-02 -4.0474269161313754e-03 -1.9717656439969269e-02)	(1.1775811726302200e-02 -3.9755199611483365e-03 -1.9706285651589394e-02)	(2.7970271033116237e-06 -7.1906954983039044e-05 -1.1370788379876459e-05)
0.17                    	(1.3426545781087099e-02 -4.0070961539191907e-03 -2.1143589411083727e-02)	(1.3423705350306550e-02 -3.9354994247301550e-03 -2.1132189253179483e-02)	(2.8404307805481470e-06 -7.1596729189035783e-05 -1.1400157904243667e-05)
0.18                    	(1.5466883919017203e-02 -3.9181492767163748e-03 -2.2978146020892150e-02)	(1.5463982708284651e-02 -3.8468294029303791e-03 -2.2966706977097344e-02)	(2.9012107325523979e-06 -7.1319873785995774e-05 -1.1439043794806264e-05)
0.19                    	(1.5952077660054912e-02 -3.9227749366410386e-03 -2.3375777168578471e-02)	(1.5949121281642324e-02 -3.8516869886714984e-03 -2.3364304183327043e-02)	(2.9563784125895843e-06 -7.1087947969540382e-05 -1.1472985251426339e-05)
0.2                     	(1.6175226618018894e-02 -3.9131327671634271e-03 -2.3620498496087428e-02)	(1.6172238640435949e-02 -3.8422421169837045e-03 -2.3609011168380524e-02)	(2.9879775829436161e-06 -7.0890650179722528e-05 -1.1487327706905032e-05)
0.21                    	(1.5879066152935495e-02 -3.9523530799151106e-03 -2.3291990364029673e-02)	(1.5876059088512473e-02 -3.8816124766294837e-03 -2.3280494342138573e-02)	(3.0070644230211447e-06 -7.0740603285626523e-05 -1.1496021891099793e-05)
0.22                    	(1.6719217682675348e-02 -3.9885880280963451e-03 -2.3996903017864602e-02)	(1.6716198965247508e-02 -3.9179860110911654e-03 -2.3985405307113718e-02)	(3.0187174278408337e-06 -7.0602017005179599e-05 -1.1497710750884647e-05)
0.23                    	(1.7551921017288183e-02 -3.9239857191695152e-03 -2.4877820881678295e-02)	(1.7548904589800796e-02 -3.8535142875753049e-03 -2.4866333915977683e-02)	(3.0164274873858412e-06 -7.0471431594210169e-05 -1.1486965700612733e-05)
0.24                    	(1.8372306091553135e-02 -3.8822735817173231e-03 -2.5665425465052377e-02)	(1.8369295904585151e-02 -3.8118960451136779e-03 -2.5653954266195159e-02)	(3.0101869679852783e-06 -7.0377536603645111e-05 -1.1471198857218243e-05)
0.25                    	(1.9365861328286257e-02 -3.8553989199341322e-03 -2.6646106879953505e-02)	(1.9362878304565640e-02 -3.7850963523096545e-03 -2.6634672198661662e-02)	(2.9830237206156152e-06 -7.0302567624477578e-05 -1.1434681291844908e-05)
0.26                    	(2.0032415780821999e-02 -3.7989143709807782e-03 -2.7347633160157044e-02)	(2.0029477674525707e-02 -3.7286682842852846e-03 -2.7336255169485291e-02)	(2.9381062962916663e-06 -7.0246086695493589e-05 -1.1377990671751918e-05)
0.27                    	(2.0033266829004848e-02 -3.7773281032698488e-03 -2.7444969647694637e-02)	(2.0030385547522095e-02 -3.7071198886143215e-03 -2.7433661581136387e-02)	(2.8812814827522739e-06 -7.0208214655527256e-05 -1.1308066558249095e-05)
0.28                    	(2.0655381243820665e-02 -3.7201498107406156e-03 -2.8133022997929566e-02)	(2.0652572141128728e-02 -3.6499781528500229e-03 -2.8121804628285049e-02)	(2.8091026919371865e-06 -7.0171657890592470e-05 -1.1218369644516913e-05)
0.29                    	(2.1134107086281710e-02 -3.6798662803701342e-03 -2.8693781642229049e-02)	(2.1131374579865081e-02 -3.6097356331905462e-03 -2.8682656193517484e-02)	(2.7325064166281597e-06 -7.0130647179587923e-05 -1.1125448711565023e-05)
0.3                     	(2.1566070489249235e-02 -3.6211931195794436e-03 -2.9236574716026958e-02)	(2.1563404635889703e-02 -3.5510974158757709e-03 -2.9225531741935984e-02)	(2.6658533595295536e-06 -7.0095703703672657e-05 -1.1042974090972400e-05)
0.31                    	(2.2212213497993190e-02 -3.5695704155710951e-03 -2.9983871550881620e-02)	(2.2209598874762169e-02 -3.4995021233032381e-03 -2.9972888777494835e-02)	(2.6146232310215261e-06 -7.0068292267856937e-05 -1.0982773386785173e-05)
0.32                    	(2.3277903927878232e-02 -3.4886383643523088e-03 -3.1148741069366468e-02)	(2.3275322582185908e-02 -3.4186201033244517e-03 -3.1137794909114381e-02)	(2.5813456923248349e-06 -7.0018261027857294e-05 -1.0946160252086594e-05)
0.33                    	(2.4787030367075656e-02 -3.3881100774487737e-03 -3.2755667210211038e-02)	(2.4784463544598317e-02 -3.3181504995904282e-03 -3.2744737666995608e-02)	(2.5668224773370334e-06 -6.9959577858345564e-05 -1.0929543215433998e-05)
0.34                    	(2.5683902733365939e-02 -3.2915002274247246e-03 -3.3802310196307708e-02)	(2.5681339309107404e-02 -3.2215922995917304e-03 -3.3791378834861351e-02)	(2.5634242585359296e-06 -6.9907927832994090e-05 -1.0931361446354981e-05)
0.35                    	(2.6450027775999734e-02 -3.1976076689722278e-03 -3.4746936280628506e-02)	(2.6447463688377623e-02 -3.1277542139020367e-03 -3.4735993485694464e-02)	(2.5640876221105174e-06 -6.9853455070191121e-05 -1.0942794934041073e-05)
0.36                    	(2.7919717268108359e-02 -3.1044263290514172e-03 -3.6350406787446547e-02)	(2.7917135047786798e-02 -3.0345971761364314e-03 -3.6339429023583066e-02)	(2.5822203215596634e-06 -6.9829152914985848e-05 -1.0977763863484896e-05)
0.37                    	(2.9003436975463519e-02 -3.0151658945536211e-03 -3.7609195890731188e-02)	(2.9000835670224170e-02 -2.9453532887779711e-03 -3.7598173812194269e-02)	(2.6013052393500669e-06 -6.9812605775649913e-05 -1.1022078536918243e-05)
0.38                    	(3.0373874683057047e-02 -2.9253176072650162e-03 -3.9124826877898575e-02)	(3.0371259949769403e-02 -2.8555574140501777e-03 -3.9113770481176369e-02)	(2.6147332876445542e-06 -6.9760193214838480e-05 -1.1056396722209300e-05)
0.39                    	(3.1952773719726761e-02 -2.8281317476454701e-03 -4.0834896207084262e-02)	(3.1950191699182263e-02 -2.7584918699528967e-03 -4.0823855235081377e-02)	(2.5820205444961538e-06 -6.9639877692573353e-05 -1.1040972002885113e-05)
0.4                     	(3.3372740886308074e-02 -2.7289328003623930e-03 -4.2427546797296489e-02)	(3.3370176981073668e-02 -2.6594923165487337e-03 -4.2416511664487885e-02)	(2.5639052344064723e-06 -6.9440483813659138e-05 -1.1035132808602659e-05)
0.41                    	(3.4821334959525350e-02 -2.6412714647823577e-03 -4.4036374928333344e-02)	(3.4818782766329569e-02 -2.5720612868732934e-03 -4.4025350736910891e-02)	(2.5521931957783931e-06 -6.9210177909064484e-05 -1.1024191422452999e-05)
0.42                    	(3.6144682527611494e-02 -2.5550890600461646e-03 -4.5536097676083465e-02)	(3.6142167389253625e-02 -2.4861021979132006e-03 -4.5525103513901377e-02)	(2.5151383578682003e-06 -6.8986862132963916e-05 -1.0994162182087577e-05)
0.43                    	(3.7459494782282950e-02 -2.4647551860424053e-03 -4.7027032636018234e-02)	(3.7457013034220638e-02 -2.3959266729672766e-03 -4.7016063820836569e-02)	(2.4817480623093957e-06 -6.8828513075128728e-05 -1.0968815181663932e-05)
0.44                    	(3.8689631508006028e-02 -2.3742945450079371e-03 -4.8449669492733730e-02)	(3.8687200471648947e-02 -2.3055817133365792e-03 -4.8438740114481647e-02)	(2.4310363570841436e-06 -6.8712831671358072e-05 -1.0929378252084597e-05)
0.45                    	(3.9904685847002200e-02 -2.2845981679587130e-03 -4.9855816984213590e-02)	(3.9902282696694540e-02 -2.2159710268801142e-03 -4.9844908417526319e-02)	(2.4031503076574534e-06 -6.8627141078598651e-05 -1.0908566687269367e-05)
0.46                    	(4.1227487117206509e-02 -2.2023849258109257e-03 -5.1387049987612107e-02)	(4.1225033420605441e-02 -2.1338484115872277e-03 -5.1376072514287198e-02)	(2.4536966010672296e-06 -6.8536514223698096e-05 -1.0977473324907773e-05)
0.47                    	(4.2425883497349964e-02 -2.1246927753223459e-03 -5.2818938245631421e-02)	(4.2423424016123625e-02 -2.0562976933719205e-03 -5.2807954718935554e-02)	(2.4594812263389955e-06 -6.8395081950425163e-05 -1.0983526695866072e-05)
0.48                    	(4.3964222416339412e-02 -2.0779172572111420e-03 -5.4567613860077753e-02)	(4.3961752014939667e-02 -2.0096508341091871e-03 -5.4556623954259871e-02)	(2.4704013997458762e-06 -6.8266423101955029e-05 -1.0989905817881670e-05)
0.49                    	(4.5466542584879040e-02 -2.0162597232909456e-03 -5.6346405208018854e-02)	(4.5464067498407430e-02 -1.9480565337902623e-03 -5.6335416967166513e-02)	(2.4750864716120300e-06 -6.8203189500683507e-05 -1.0988240852342606e-05)
0.5                     	(4.6546020426560662e-02 -1.9221685392124249e-03 -5.7576798126508344e-02)	(4.6543587889669190e-02 -1.8540307145786155e-03 -5.7565872478008762e-02)	(2.4325368914743250e-06 -6.8137824633809292e-05 -1.0925648499580167e-05)
0.51                    	(4.7845664036624325e-02 -1.8688872325422635e-03 -5.8968706062551730e-02)	(4.7843199022856595e-02 -1.8009800220902621e-03 -5.8957778877669280e-02)	(2.4650137677278670e-06 -6.7907210452001446e-05 -1.0927184882452649e-05)
0.52                    	(4.9028754333486135e-02 -1.8202071594880169e-03 -6.0280250242092062e-02)	(4.9026229137483834e-02 -1.7525078010239294e-03 -6.0269286074535001e-02)	(2.5251960023017624e-06 -6.7699358464087491e-05 -1.0964167557063951e-05)
0.53                    	(5.0223475073276340e-02 -1.7628362962861879e-03 -6.1603769021780067e-02)	(5.0220920993860739e-02 -1.6953989207564705e-03 -6.1592802348945271e-02)	(2.5540794155986420e-06 -6.7437375529717414e-05 -1.0966672834795576e-05)
0.54                    	(5.1388168846822499e-02 -1.7162911747735181e-03 -6.2882530835066314e-02)	(5.1385578354427593e-02 -1.6492022912742022e-03 -6.2871546324517524e-02)	(2.5904923949064550e-06 -6.7088883499315962e-05 -1.0984510548782559e-05)
0.55                    	(5.2481311249752326e-02 -1.6471561690436010e-03 -6.4068930568261490e-02)	(5.2478694608847555e-02 -1.5804825819778429e-03 -6.4057941012899397e-02)	(2.6166409047710619e-06 -6.6673587065758260e-05 -1.0989555362086681e-05)
0.56                    	(5.3603651861049206e-02 -1.5935144837921841e-03 -6.5266026774438143e-02)	(5.3600989929623664e-02 -1.5273357011484415e-03 -6.5255010919628903e-02)	(2.6619314255439051e-06 -6.6178782643742582e-05 -1.1015854809239326e-05)
0.57                    	(5.4650265796892465e-02 -1.5483554552659089e-03 -6.6384824883583785e-02)	(5.4647586785435909e-02 -1.4826879219585693e-03 -6.6373814087733532e-02)	(2.6790114565542142e-06 -6.5667533307339730e-05 -1.1010795850245900e-05)
0.58                    	(5.5474286849137619e-02 -1.4834100681288269e-03 -6.7253939145404895e-02)	(5.5471567714225213e-02 -1.4183298226393946e-03 -6.7242903070107551e-02)	(2.7191349124053565e-06 -6.5080245489432338e-05 -1.1036075297348886e-05)
0.59                    	(5.6462794075008989e-02 -1.4499969925523333e-03 -6.8296168848833202e-02)	(5.6460031127220776e-02 -1.3854934101884104e-03 -6.8285109004852421e-02)	(2.7629477882112868e-06 -6.4503582363923011e-05 -1.1059843980788158e-05)
0.6                     	(5.7554726710758140e-02 -1.4486262598783341e-03 -6.9372017040865638e-02)	(5.7551902385791533e-02 -1.3846369705331483e-03 -6.9360926728397596e-02)	(2.8243249666074344e-06 -6.3989289345185724e-05 -1.1090312468048942e-05)
0.61                    	(5.8436463781593194e-02 -1.4302842297694732e-03 -7.0241681699744901e-02)	(5.8433594501301638e-02 -1.3667565792561619e-03 -7.0230567246329978e-02)	(2.8692802915595614e-06 -6.3527650513311258e-05 -1.1114453414922125e-05)
0.62                    	(5.9453720650407278e-02 -1.4405347612394359e-03 -7.1297652025343328e-02)	(5.9450815089538069e-02 -1.3772597568422074e-03 -7.1286513510990412e-02)	(2.9055608692083409e-06 -6.3275004397228424e-05 -1.1138514352909254e-05)
0.63                    	(6.0402074094033240e-02 -1.4602458085094356e-03 -7.2271929216124561e-02)	(6.0399218416604880e-02 -1.3968527155718458e-03 -7.2260801230524641e-02)	(2.8556774283620091e-06 -6.3393092937589801e-05 -1.1127985599923077e-05)
0.64                    	(6.0979407871562960e-02 -1.4548622470705547e-03 -7.2797361034539196e-02)	(6.0976560952444275e-02 -1.3914002394326505e-03 -7.2786217738775610e-02)	(2.8469191186814163e-06 -6.3462007637904154e-05 -1.1143295763581586e-05)
0.65                    	(6.1368012719935215e-02 -1.4369862548198622e-03 -7.3159132745644381e-02)	(6.1365177683162089e-02 -1.3735993424473401e-03 -7.3147979266080909e-02)	(2.8350367731246098e-06 -6.3386912372522035e-05 -1.1153479563478497e-05)
0.66                    	(6.1596467001204122e-02 -1.4116707759241180e-03 -7.3379034394182696e-02)	(6.1593606527260800e-02 -1.3483944675851667e-03 -7.3367847466134853e-02)	(2.8604739433209603e-06 -6.3276308338951277e-05 -1.1186928047837534e-05)
0.67                    	(6.1624610948745405e-02 -1.3795073018432068e-03 -7.3384920228700690e-02)	(6.1621698127486614e-02 -1.3163596116407537e-03 -7.3373687420656364e-02)	(2.9128212587875747e-06 -6.3147690202453008e-05 -1.1232808044321450e-05)
0.68                    	(6.1554123430197276e-02 -1.3530224319813697e-03 -7.3271062684987995e-02)	(6.1551152799921585e-02 -1.2899978384957726e-03 -7.3259783013089469e-02)	(2.9706302756922811e-06 -6.3024593485597159e-05 -1.1279671898520001e-05)
0.69                    	(6.1385437671822148e-02 -1.3281243512268299e-03 -7.3049090684721485e-02)	(6.1382404782153940e-02 -1.2652031014816617e-03 -7.3037753223214194e-02)	(3.0328896682047859e-06 -6.2921249745168139e-05 -1.1337461507287046e-05)
0.7                     	(6.1074067939318487e-02 -1.3062736418155382e-03 -7.2674896841766368e-02)	(6.1070977449340966e-02 -1.2434280170822523e-03 -7.2663502687392079e-02)	(3.0904899775177805e-06 -6.2845624733285827e-05 -1.1394154374292029e-05)
0.71                    	(6.0313312704517237e-02 -1.2568044908259025e-03 -7.1871843586443884e-02)	(6.0310168133298078e-02 -1.1940263484578315e-03 -7.1860394805741939e-02)	(3.1445712191612990e-06 -6.2778142368071069e-05 -1.1448780701950223e-05)
0.72                    	(5.9995100130529985e-02 -1.2552651451435096e-03 -7.1434182694399329e-02)	(5.9991899399012685e-02 -1.1925539892528583e-03 -7.1422678616651802e-02)	(3.2007315173012473e-06 -6.2711155890651235e-05 -1.1504077747519847e-05)
0.73                    	(5.9287318481526984e-02 -1.2377396895662909e-03 -7.0633303622001070e-02)	(5.9284065216347125e-02 -1.1750843822767416e-03 -7.0621746206179226e-02)	(3.2532651798558597e-06 -6.2655307289549291e-05 -1.1557415821838670e-05)
0.74                    	(5.8512758044380393e-02 -1.2297316666520855e-03 -6.9749897974603764e-02)	(5.8509466173805112e-02 -1.1671046332805222e-03 -6.9738300914663681e-02)	(3.2918705752794115e-06 -6.2627033371563375e-05 -1.1597059940085538e-05)
0.75                    	(5.7611109022956922e-02 -1.2388148442795531e-03 -6.8732752015738155e-02)	(5.7607789467183299e-02 -1.1761855884208049e-03 -6.8721125321193330e-02)	(3.3195557736199895e-06 -6.2629255858748345e-05 -1.1626694544824428e-05)
0.76                    	(5.6674123613369834e-02 -1.2555612120900444e-03 -6.7661897728459472e-02)	(5.6670780704772765e-02 -1.1929075228713512e-03 -6.7650240804406958e-02)	(3.3429085970692843e-06 -6.2653689218693088e-05 -1.1656924052510494e-05)
0.77                    	(5.5703892403444477e-02 -1.2798251517291970e-03 -6.6541918484320242e-02)	(5.5700539441836380e-02 -1.2171277438587304e-03 -6.6530237655863328e-02)	(3.3529616080954013e-06 -6.2697407870466676e-05 -1.1680828456916770e-05)
0.78                    	(5.4732739186387339e-02 -1.2950746252730027e-03 -6.5420824672973804e-02)	(5.4729374606349926e-02 -1.2323258412724604e-03 -6.5409116297092590e-02)	(3.3645800374152599e-06 -6.2748784000542278e-05 -1.1708375881211807e-05)
0.79                    	(5.3760622612216799e-02 -1.3183487342639335e-03 -6.4295157949781606e-02)	(5.3757241274457863e-02 -1.2555445716968064e-03 -6.4283420181899045e-02)	(3.3813377589350787e-06 -6.2804162567127190e-05 -1.1737767882561935e-05)
0.8                     	(5.2683747189174901e-02 -1.3445296153879718e-03 -6.3060712241331918e-02)	(5.2680348157234026e-02 -1.2816764086645395e-03 -6.3048944995360609e-02)	(3.3990319408732895e-06 -6.2853206723432347e-05 -1.1767245971307688e-05)
0.81                    	(5.1576181748226251e-02 -1.3861679538709325e-03 -6.1795319224904464e-02)	(5.1572754928599994e-02 -1.3232567202837546e-03 -6.1783512667385909e-02)	(3.4268196262577422e-06 -6.2911233587177847e-05 -1.1806557518556747e-05)
0.82                    	(5.0372709945977909e-02 -1.4484947693582124e-03 -6.0417365345335546e-02)	(5.0369265964861402e-02 -1.3854999328288167e-03 -6.0405528564148381e-02)	(3.4439811165051265e-06 -6.2994836529395626e-05 -1.1836781187165302e-05)
0.83                    	(4.9159538029139090e-02 -1.5152401003843739e-03 -5.9030245645521125e-02)	(4.9156081125645075e-02 -1.4521442487565456e-03 -5.9018384621713514e-02)	(3.4569034940155359e-06 -6.3095851627828443e-05 -1.1861023807610746e-05)
0.84                    	(4.7698085781873317e-02 -1.5730219064993111e-03 -5.7433119053892416e-02)	(4.7694602768642264e-02 -1.5098080641761883e-03 -5.7421213644143272e-02)	(3.4830132310515244e-06 -6.3213842323122865e-05 -1.1905409749145416e-05)
0.85                    	(4.6563390149637909e-02 -1.6649327308933335e-03 -5.6137963516648577e-02)	(4.6559872302696745e-02 -1.6015701736155474e-03 -5.6126001711952631e-02)	(3.5178469411630775e-06 -6.3362557277786099e-05 -1.1961804695947620e-05)
0.86                    	(4.5378717662286919e-02 -1.7618067787945908e-03 -5.4789118149011107e-02)	(4.5375163099381194e-02 -1.6982820109659260e-03 -5.4777096776354797e-02)	(3.5545629057258058e-06 -6.3524767828664660e-05 -1.2021372656309840e-05)
