# MyForce               
# CofR                  : (4.9746127460000000e-01 -1.6718957440000001e-02 1.2500000000000000e-01)
#
# Time                  	(total_x total_y total_z)	(pressure_x pressure_y pressure_z)	(viscous_x viscous_y viscous_z)
0.01                    	(1.6389350056679075e-01 -1.7714084550504676e+01 3.4756906050189457e-17)	(1.6368151332515934e-01 -1.7714093832938097e+01 3.5004215012554852e-17)	(2.1198724163139584e-04 9.2824334195655915e-06 -2.4730896236539319e-19)
0.02                    	(1.6271224742106037e-03 2.1704949720474569e+00 -8.6718828761389826e-19)	(1.4129377528854714e-03 2.1704805311611897e+00 -9.2513532084380759e-19)	(2.1418472132513230e-04 1.4440886267017973e-05 5.7947033229909358e-20)
0.03                    	(-8.5841576970281533e-04 2.9173854314353881e-01 -2.9946805923313528e-19)	(-1.0633482748209299e-03 2.9172758209196192e-01 -3.0334077258482877e-19)	(2.0493250511811461e-04 1.0961051576889202e-05 3.8727133516934774e-21)
0.04                    	(3.9451697507564163e-03 5.8274763250950871e-02 -1.1506477279029044e-19)	(3.7455614535316572e-03 5.8265059510270154e-02 4.9936410681179461e-21)	(1.9960829722475942e-04 9.7037406807184425e-06 -1.2005841385840840e-19)
0.05                    	(5.7362806129525280e-03 5.0156200918725434e-02 -2.3077492624945053e-19)	(5.5396108561803804e-03 5.0147091307216424e-02 -2.1828119011409116e-19)	(1.9666975677214745e-04 9.1096115090118323e-06 -1.2493736135359385e-20)
0.06                    	(6.6576425860643265e-03 3.9242092747586124e-02 1.0260021652173237e-19)	(6.4633752932379733e-03 3.9233676340757306e-02 1.1859684511294939e-19)	(1.9426729282635309e-04 8.4164068288194140e-06 -1.5996628591217007e-20)
0.07                    	(7.1237794724618372e-03 3.6140204830530306e-02 -9.9881687137446796e-20)	(6.9320597259301571e-03 3.6132516536288815e-02 -7.5473476423765708e-20)	(1.9171974653168044e-04 7.6882942414934021e-06 -2.4408210713681082e-20)
0.08                    	(7.7017647469872089e-03 3.3937943988608582e-02 -2.8425157558231562e-19)	(7.5126597321237996e-03 3.3930595748435217e-02 -2.6705513301365921e-19)	(1.8910501486340967e-04 7.3482401733613961e-06 -1.7196442568656432e-20)
0.09                    	(8.3473764747010147e-03 3.2416721431400987e-02 2.2220704383057532e-19)	(8.1606857493382746e-03 3.2409504523945878e-02 2.4777745957891407e-19)	(1.8669072536274038e-04 7.2169074551060552e-06 -2.5570415748338766e-20)
0.1                     	(9.0394501719428810e-03 2.7168912134735681e-02 -6.4022546957526508e-20)	(8.8549870652217741e-03 2.7161899459843413e-02 -1.6262603131731174e-19)	(1.8446310672110672e-04 7.0126748922674428e-06 9.8603484359785233e-20)
0.11                    	(9.6017736019221710e-03 1.7187769735816039e-02 -3.8784709625356491e-19)	(9.4187631946861597e-03 1.7180853078870892e-02 -2.6979167139227726e-19)	(1.8301040723601205e-04 6.9166569451470248e-06 -1.1805542486128767e-19)
0.12                    	(9.6204695194641674e-03 2.1156986187791500e-02 -1.7625852817990084e-19)	(9.4384218265825444e-03 2.1150211218744015e-02 -1.5180050575645068e-19)	(1.8204769288162218e-04 6.7749690474839993e-06 -2.4458022423450158e-20)
0.13                    	(9.8152264664091056e-03 2.4331759491236508e-02 -3.0591316136754751e-19)	(9.6347714721218471e-03 2.4325122215976044e-02 -2.5386623574851252e-19)	(1.8045499428725784e-04 6.6372752604625160e-06 -5.2046925619035014e-20)
0.14                    	(9.9436713167524761e-03 2.4274011920219551e-02 -3.1384484055283047e-19)	(9.7646534610857719e-03 2.4267394256850958e-02 -2.9870674961618727e-19)	(1.7901785566670390e-04 6.6176633685929682e-06 -1.5138090936643215e-20)
0.15                    	(9.9656068452663969e-03 2.5183397176375962e-02 1.6407184632795476e-19)	(9.7876428542623874e-03 2.5176664652875796e-02 8.2319502468977021e-20)	(1.7796399100400862e-04 6.7325235001641792e-06 8.1752343858977740e-20)
0.16                    	(9.9655660842550686e-03 2.9001265827634241e-02 -7.4921942808442245e-20)	(9.7885169301505232e-03 2.8994378993352832e-02 5.7286684698253112e-20)	(1.7704915410454556e-04 6.8868342814073949e-06 -1.3220862750669536e-19)
0.17                    	(9.8662637659223916e-03 3.3058812929126768e-02 1.2509552759533348e-19)	(9.6899784491187389e-03 3.3051819226402088e-02 1.3527068608992233e-19)	(1.7628531680365252e-04 6.9937027246833614e-06 -1.0175158494588839e-20)
0.18                    	(9.6472589509818372e-03 3.8082529223231791e-02 -3.1465890688448874e-19)	(9.4716553069722712e-03 3.8075385868236458e-02 -2.8520816829555353e-19)	(1.7560364400956647e-04 7.1433549953351476e-06 -2.9450738588935235e-20)
0.19                    	(9.6586482411698329e-03 3.9277172237218529e-02 6.9339655133630600e-20)	(9.4836156444202731e-03 3.9269893048476834e-02 -1.6972524547458993e-20)	(1.7503259674956067e-04 7.2791887416924734e-06 8.6312179681089591e-20)
0.2                     	(9.6349073116568703e-03 3.9826609134611154e-02 -1.7192683672394110e-19)	(9.4603605011125830e-03 3.9819252142458336e-02 -4.4535914142000958e-20)	(1.7454681054428748e-04 7.3569921528215876e-06 -1.2739092258194015e-19)
0.21                    	(9.7314754836513532e-03 3.9097403457154900e-02 -3.0092767847419098e-19)	(9.5572981182557581e-03 3.9089999469424375e-02 -2.8177193002372811e-19)	(1.7417736539559537e-04 7.4039877305240643e-06 -1.9155748450462861e-20)
0.22                    	(9.8206930972469068e-03 4.1166022795787245e-02 1.4197058717539830e-19)	(9.6468569587010566e-03 4.1158590116052635e-02 6.1952032895812636e-20)	(1.7383613854585035e-04 7.4326797346089010e-06 8.0018554279585656e-20)
0.23                    	(9.6616294273780667e-03 4.3216303203962102e-02 -3.6632076197464431e-19)	(9.4881148159578748e-03 4.3208876162514093e-02 -2.5089372800148258e-19)	(1.7351461142019197e-04 7.4270414480120022e-06 -1.1542703397316174e-19)
0.24                    	(9.5589258898197763e-03 4.5236253617282569e-02 2.5076757177472750e-19)	(9.3856424664488913e-03 4.5228841941228365e-02 2.8364407090249020e-19)	(1.7328342337088418e-04 7.4116760542012951e-06 -3.2876499127762685e-20)
0.25                    	(9.4927551538084628e-03 4.7682583242299133e-02 -1.9228557742432751e-19)	(9.3196563189012240e-03 4.7675238447535767e-02 -1.7130686396749411e-19)	(1.7309883490723943e-04 7.3447947633627962e-06 -2.0978713456833403e-20)
0.26                    	(9.3536790155610994e-03 4.9323772220665800e-02 -1.0781332323609464e-19)	(9.1807192478790267e-03 4.9316538021490622e-02 -1.1900639626955172e-19)	(1.7295976768207311e-04 7.2341991751754487e-06 1.1193073033457090e-20)
0.27                    	(9.3005293523693248e-03 4.9325867669720927e-02 -4.6961535331537276e-20)	(9.1276628331448152e-03 4.9318773384482748e-02 -1.8330119929059916e-20)	(1.7286651922450959e-04 7.0942852381762981e-06 -2.8631415402477360e-20)
0.28                    	(9.1597450801409845e-03 5.0857636480197782e-02 -5.6407434899172166e-20)	(8.9869685709066081e-03 5.0850719913427329e-02 -1.4749861333732771e-19)	(1.7277650923437692e-04 6.9165667704548443e-06 9.1091178438155540e-20)
0.29                    	(9.0605590559501379e-03 5.2036354247842205e-02 -1.8769789074772672e-19)	(8.8878835232025881e-03 5.2029626276260552e-02 -1.6975756976209323e-19)	(1.7267553274755029e-04 6.7279715816553756e-06 -1.7940320985633494e-20)
0.3                     	(8.9160941222162261e-03 5.3099933634809145e-02 -7.2731259905976434e-20)	(8.7435046272219610e-03 5.3093369776245215e-02 -3.7087632310671929e-20)	(1.7258949499426575e-04 6.5638585639288738e-06 -3.5643627595304499e-20)
0.31                    	(8.7889888084197679e-03 5.4690865598979635e-02 -4.8206858907816647e-19)	(8.6164668058054134e-03 5.4684427879130929e-02 -3.3782902809893982e-19)	(1.7252200261435460e-04 6.4377198487079072e-06 -1.4423956097922663e-19)
0.32                    	(8.5897180812472412e-03 5.7314806345642601e-02 -2.2570689226045047e-19)	(8.4173192654473303e-03 5.7308450561680047e-02 -1.9900051322717807e-19)	(1.7239881579991066e-04 6.3557839625572412e-06 -2.6706379033272391e-20)
0.33                    	(8.3421975435739662e-03 6.1030574306610061e-02 -1.2489411003678445e-19)	(8.1699432173512419e-03 6.1024254281677057e-02 -2.2235381069402938e-19)	(1.7225432622272474e-04 6.3200249330019484e-06 9.7459700657244937e-20)
0.34                    	(8.1043249729866058e-03 6.3238851570316973e-02 -7.9177416043477337e-20)	(7.9321978193482318e-03 6.3232539912471186e-02 6.3432138680557491e-20)	(1.7212715363837427e-04 6.3116578457801634e-06 -1.4260955472403483e-19)
0.35                    	(7.8731429120211943e-03 6.5125203047286265e-02 2.2587855160996450e-21)	(7.7011498811054178e-03 6.5118889756108078e-02 1.8036660005731790e-20)	(1.7199303091577702e-04 6.3132911781855139e-06 -1.5777874489632145e-20)
0.36                    	(7.6437120118363795e-03 6.8743869439647720e-02 -2.0772662536584478e-19)	(7.4717788176362999e-03 6.8737511502174886e-02 -1.9440554436349420e-19)	(1.7193319420007937e-04 6.3579374728292039e-06 -1.3321081002350574e-20)
0.37                    	(7.4239351567801952e-03 7.1412201835574021e-02 -3.0268994847330348e-19)	(7.2520427049119667e-03 7.1405796907256541e-02 -2.9857091050743694e-19)	(1.7189245186822880e-04 6.4049283174803579e-06 -4.1190379658665560e-21)
0.38                    	(7.2027108918124748e-03 7.4786490691772123e-02 3.9325850045639705e-19)	(7.0309474900418101e-03 7.4780052700942234e-02 4.2741446981200000e-19)	(1.7176340177066450e-04 6.4379908298948383e-06 -3.4155969355602937e-20)
0.39                    	(6.9634200716043003e-03 7.8674052596247046e-02 -1.9952697863225918e-21)	(6.7919529104608148e-03 7.8667695150664879e-02 3.2418777280372970e-20)	(1.7146716114348578e-04 6.3574455821614333e-06 -3.4414047066695561e-20)
0.4                     	(6.7191726311630643e-03 8.2170292782731760e-02 1.5450096020074535e-19)	(6.5481964172110392e-03 8.2163979940628198e-02 6.5269313571583686e-20)	(1.7097621395202554e-04 6.3128421035622256e-06 8.9231646629161650e-20)
0.41                    	(6.5033330741163155e-03 8.5737018078838004e-02 -2.9248224929336150e-20)	(6.3329239188807023e-03 8.5730734074091444e-02 1.1192470722531035e-19)	(1.7040915523561354e-04 6.2840047465579020e-06 -1.4117293215464650e-19)
0.42                    	(6.2911349374988237e-03 8.8995361692070174e-02 -3.5776233113978974e-19)	(6.1212756298998699e-03 8.8989168923667983e-02 -3.4243109466913166e-19)	(1.6985930759895408e-04 6.1927684021871949e-06 -1.5331236470658087e-20)
0.43                    	(6.0687150619370654e-03 9.2232689674471569e-02 -3.2617048156918169e-19)	(5.8992456410569914e-03 9.2226579119585247e-02 -3.0756361367281309e-19)	(1.6946942088007434e-04 6.1105548863265689e-06 -1.8606867896368597e-20)
0.44                    	(5.8459830608575472e-03 9.5261529746667351e-02 4.7807277924997070e-19)	(5.6767984704877905e-03 9.5255544054035524e-02 3.8711453076987224e-19)	(1.6918459036975657e-04 5.9856926318277030e-06 9.0958248480098509e-20)
0.45                    	(5.6251328289633829e-03 9.8253233997821821e-02 6.8362044715214257e-19)	(5.4561592257918240e-03 9.8247316966162540e-02 7.0333677230827719e-19)	(1.6897360317155914e-04 5.9170316592767587e-06 -1.9716325156134578e-20)
0.46                    	(5.4227075561661753e-03 1.0151023251755240e-01 -5.3087178621417857e-19)	(5.2539570942471293e-03 1.0150419103091525e-01 -3.9682592056933458e-19)	(1.6875046191904623e-04 6.0414866371496625e-06 -1.3404586564484403e-19)
0.47                    	(5.2314141057925581e-03 1.0446092157727402e-01 6.0428188651406213e-19)	(5.0630118781208383e-03 1.0445486584774463e-01 5.0974033866702730e-19)	(1.6840222767172002e-04 6.0557295293903079e-06 9.4541547847034858e-20)
0.48                    	(5.1162435229700244e-03 1.0824861644486267e-01 -3.3097480685106083e-19)	(4.9481580788458077e-03 1.0824253382770516e-01 -3.0619117813475371e-19)	(1.6808544412421638e-04 6.0826171575038867e-06 -2.4783628716307132e-20)
0.49                    	(4.9644304719609995e-03 1.1194762602045769e-01 -1.0240957864650608e-19)	(4.7965007214775266e-03 1.1194153186772604e-01 5.2319322226749861e-21)	(1.6792975048347258e-04 6.0941527316499180e-06 -1.0764151086918107e-19)
0.5                     	(4.7327593553947844e-03 1.1460551410359805e-01 -6.9691315984409449e-19)	(4.5649905461497631e-03 1.1459952471635358e-01 -6.7322559085410566e-19)	(1.6776880924502128e-04 5.9893872444635757e-06 -2.3687568989988827e-20)
0.51                    	(4.6015702335947895e-03 1.1780549388098428e-01 5.0125918692928723e-19)	(4.4343692421056893e-03 1.1779942452924307e-01 4.0840467232291236e-19)	(1.6720099148910029e-04 6.0693517412219709e-06 9.2854514606374881e-20)
0.52                    	(4.4817102595764973e-03 1.2071849633447558e-01 3.2888396763378153e-19)	(4.3150210408171392e-03 1.2071227880216231e-01 3.5078587691398336e-19)	(1.6668921875935802e-04 6.2175323132673727e-06 -2.1901909280201830e-20)
0.53                    	(4.3404518402410195e-03 1.2366013524021019e-01 -4.9082454840238055e-19)	(4.1744076753145072e-03 1.2365384659121714e-01 -3.6258699605572931e-19)	(1.6604416492651256e-04 6.2886489930526791e-06 -1.2823755234665119e-19)
0.54                    	(4.2258485394413240e-03 1.2652784181248564e-01 3.2283220862489406e-19)	(4.0606624308628979e-03 1.2652146350753113e-01 2.3420942403881144e-19)	(1.6518610857842644e-04 6.3783049545155707e-06 8.8622784586082614e-20)
0.55                    	(4.0556244729879143e-03 1.2921937474974032e-01 -2.7866660515638692e-19)	(3.8914609064192472e-03 1.2921293206197954e-01 -1.5377238107345954e-19)	(1.6416356656866700e-04 6.4426877607923221e-06 -1.2489422408292738e-19)
0.56                    	(3.9235480277991924e-03 1.3198279945454333e-01 2.9532888231589781e-19)	(3.7606027676431071e-03 1.3197624525255705e-01 1.8927119674919265e-19)	(1.6294526015608543e-04 6.5542019862754704e-06 1.0605768556670519e-19)
0.57                    	(3.8123575622503979e-03 1.3455977009749137e-01 -5.8965843162092879e-19)	(3.6506710991406899e-03 1.3455317384108847e-01 -4.5872066968172759e-19)	(1.6168646310970789e-04 6.5962564028916240e-06 -1.3093776193920120e-19)
0.58                    	(3.6524491659301133e-03 1.3658867300818697e-01 3.7647482426667523e-20)	(3.4922087216568438e-03 1.3658197795989505e-01 -3.3474612516552245e-20)	(1.6024044427326959e-04 6.6950482919358844e-06 7.1122094943219768e-20)
0.59                    	(3.5701795611576023e-03 1.3902257343142194e-01 -7.5028628948772225e-20)	(3.4113589756253793e-03 1.3901577050715885e-01 3.9244942593211577e-20)	(1.5882058553222291e-04 6.8029242630732761e-06 -1.1427357154198380e-19)
0.6                     	(3.5668045460357412e-03 1.4171112768245553e-01 -3.2873849149862982e-20)	(3.4092502516981709e-03 1.4170417363543222e-01 -1.0811845848536818e-19)	(1.5755429433757034e-04 6.9540470232975701e-06 7.5244609335505197e-20)
0.61                    	(3.5216428378796916e-03 1.4388213885336096e-01 5.5924084071499270e-20)	(3.3652251897080517e-03 1.4387507411743061e-01 1.6978640004981304e-19)	(1.5641764817164006e-04 7.0647359303323308e-06 -1.1386231597831377e-19)
0.62                    	(3.5468816750173090e-03 1.4638682658729510e-01 -6.4551734549823624e-19)	(3.3910860915840634e-03 1.4637967252140238e-01 -6.0698441058935761e-19)	(1.5579558343324567e-04 7.1540658927073955e-06 -3.8532934908878581e-20)
0.63                    	(3.5954141743630404e-03 1.4872186045190131e-01 4.8290443558951457e-19)	(3.4393278335727996e-03 1.4871482920891227e-01 5.0646457814106673e-19)	(1.5608634079024061e-04 7.0312429890292943e-06 -2.3560142551552199e-20)
0.64                    	(3.5821587806525398e-03 1.5014337047094917e-01 4.8866502937246446e-19)	(3.4259027582313789e-03 1.5013636079265191e-01 4.9006725792900948e-19)	(1.5625602242116078e-04 7.0096782972592026e-06 -1.4022285565450350e-21)
0.65                    	(3.5381445499357588e-03 1.5110019251551307e-01 -1.2618134880986847e-19)	(3.3820734269198963e-03 1.5109321209390217e-01 -1.0440369438891297e-19)	(1.5607112301586261e-04 6.9804216108912976e-06 -2.1777654420955512e-20)
0.66                    	(3.4758128307675632e-03 1.5166269216884645e-01 -3.9127504600644644e-19)	(3.3200140367717359e-03 1.5165564911588833e-01 -3.5888728104831582e-19)	(1.5579879399582733e-04 7.0430529581252247e-06 -3.2387764958130616e-20)
0.67                    	(3.3966199921828667e-03 1.5173198813759553e-01 1.2319372853323446e-19)	(3.2411378814936110e-03 1.5172481619518680e-01 1.6933196429499762e-19)	(1.5548211068925575e-04 7.1719424087380863e-06 -4.6138235761763160e-20)
0.68                    	(3.3314090010247359e-03 1.5155843391691115e-01 3.7417704733200056e-19)	(3.1762299788141608e-03 1.5155111963726195e-01 3.9678887328749691e-19)	(1.5517902221057509e-04 7.3142796492040204e-06 -2.2611825955496355e-20)
0.69                    	(3.2701049986864667e-03 1.5114309619558994e-01 -1.1668454597165971e-19)	(3.1151804292173443e-03 1.5113562862099475e-01 -8.6085894081982135e-20)	(1.5492456946912230e-04 7.4675745951797113e-06 -3.0598651889677566e-20)
0.7                     	(3.2163042276933695e-03 1.5037644229171460e-01 -9.7424003914513559e-20)	(3.0615658619702695e-03 1.5036883289375835e-01 -7.0575001347711219e-20)	(1.5473836572309983e-04 7.6093979562500172e-06 -2.6849002566802346e-20)
0.71                    	(3.0945013876335918e-03 1.4850331234435502e-01 2.1529882017080250e-19)	(2.9399291768489270e-03 1.4849556978767875e-01 2.2953627996863910e-19)	(1.5457221078466488e-04 7.7425566762676736e-06 -1.4237459797836599e-20)
0.72                    	(3.0907112139152543e-03 1.4771981001049647e-01 -2.2476748172201167e-19)	(2.9363039370951332e-03 1.4771192917605164e-01 -2.1126664900373508e-19)	(1.5440727682012112e-04 7.8808344448407200e-06 -1.3500832718276601e-20)
0.73                    	(3.0475600738624543e-03 1.4597711151525000e-01 -1.1489106197061400e-19)	(2.8932903073511113e-03 1.4596910133253113e-01 -6.5451280782799001e-20)	(1.5426976651134285e-04 8.0101827188637527e-06 -4.9439781187815006e-20)
0.74                    	(3.0278427365987063e-03 1.4406999042756105e-01 2.2800229061815062e-19)	(2.8736425860690692e-03 1.4406188519071836e-01 1.2984121546783335e-19)	(1.5420015052963705e-04 8.1052368426995132e-06 9.8161075150317259e-20)
0.75                    	(3.0502073175478462e-03 1.4184995209357973e-01 1.2392477508782643e-19)	(2.8960016948149127e-03 1.4184177869029960e-01 1.3822123477397189e-19)	(1.5420562273293356e-04 8.1734032801264997e-06 -1.4296459686145447e-20)
0.76                    	(3.0914401893315348e-03 1.3954290857859813e-01 2.2794221700083740e-19)	(2.9371744068308683e-03 1.3953467767604497e-01 2.5712535001719994e-19)	(1.5426578250066631e-04 8.2309025531610156e-06 -2.9183133016362533e-20)
0.77                    	(3.1511828107423463e-03 1.3715400732358549e-01 -1.1532232421048032e-20)	(2.9968093842687579e-03 1.3714575166852960e-01 1.0052254235751718e-20)	(1.5437342647358840e-04 8.2556550558750754e-06 -2.1584486656799751e-20)
0.78                    	(3.1887300325946278e-03 1.3476283590454224e-01 1.7342918998407973e-19)	(3.0342301079210642e-03 1.3475455164261402e-01 2.9911770787932222e-19)	(1.5449992467356352e-04 8.2842619282365979e-06 -1.2568851789524248e-19)
0.79                    	(3.2460354950544596e-03 1.3236929250963006e-01 -1.1459277234333368e-19)	(3.0913992173901223e-03 1.3236096698687497e-01 -1.0863687482559554e-19)	(1.5463627766433745e-04 8.3255227550996321e-06 -5.9558975177381421e-21)
0.8                     	(3.3104980057784353e-03 1.2971781209621921e-01 -3.2518481008969474e-19)	(3.1557409716950610e-03 1.2970944300688636e-01 -2.8583818249553112e-19)	(1.5475703408337438e-04 8.3690893328454277e-06 -3.9346627594163609e-20)
0.81                    	(3.4130198356691023e-03 1.2699076678493273e-01 1.1281518138911739e-19)	(3.2581199279632265e-03 1.2698232927681907e-01 3.8527900082991020e-20)	(1.5489990770587591e-04 8.4375081136573816e-06 7.4287281306126386e-20)
0.82                    	(3.5664807903522163e-03 1.2402758103152399e-01 2.2211013753750944e-19)	(3.4113750356569387e-03 1.2401910126842496e-01 3.3531574433291308e-19)	(1.5510575469527763e-04 8.4797630990366238e-06 -1.1320560679540364e-19)
0.83                    	(3.7308210047500758e-03 1.2104051167626668e-01 2.2276383042202741e-19)	(3.5754665308907960e-03 1.2103200009571678e-01 2.5903475402252435e-19)	(1.5535447385927977e-04 8.5115805499045842e-06 -3.6270923600496958e-20)
0.84                    	(3.8730912468663697e-03 1.1744212701092206e-01 3.4654553251456221e-20)	(3.7174462565640141e-03 1.1743355114303226e-01 -5.3530821027211580e-20)	(1.5564499030235564e-04 8.5758678898038099e-06 8.8185374278667801e-20)
0.85                    	(4.0993938863794974e-03 1.1464828179941529e-01 -4.5190572846976016e-19)	(3.9433827304269338e-03 1.1463962016403734e-01 -3.0547772732419252e-19)	(1.5601115595256315e-04 8.6616353779560902e-06 -1.4642800114556762e-19)
0.86                    	(4.3379169644273191e-03 1.1173138367981200e-01 3.4844018696783555e-19)	(4.1815064139957845e-03 1.1172263164246292e-01 2.3795908610436227e-19)	(1.5641055043153496e-04 8.7520373490796805e-06 1.1048110086347328e-19)
