# Trim_Forces           
# Time                  	total_x                 	total_y                 	total_z                 
1.0000000149011612e-01	+1.287331778293453e-01	-5.316907403133085e-01	+8.858568464037545e-18
2.000000029802322e-01	-3.709112914741378e-02	+6.305070142768703e-02	+1.094957833795672e-18
3.000000119209290e-01	+1.338447200326198e-02	-9.463576867535523e-04	+1.530350261995455e-18
4.000000059604645e-01	+6.878021046459897e-03	+1.561890644711045e-02	+1.187885481143610e-18
5.000000000000000e-01	+1.031694768959013e-02	-1.344671867596688e-02	+1.141045438669569e-18
6.000000238418579e-01	+1.255582030351354e-02	-1.829661413087132e-02	+1.127682086330953e-18
6.999999880790710e-01	+1.291010193715810e-02	-1.553525610869147e-02	+1.085201158413388e-18
8.000000119209290e-01	+1.336058366813011e-02	-1.531324423683448e-02	+1.048075222682059e-18
8.999999761581421e-01	+1.445963258158527e-02	-1.733307469885052e-02	+1.051228259745248e-18
1.000000000000000e+00	+1.506724315581060e-02	-1.986850690467352e-02	+1.032826517275667e-18
1.100000023841858e+00	+1.522030808744689e-02	-1.705433887392114e-02	+1.009710847074883e-18
1.200000047683716e+00	+1.534823771493112e-02	-1.896543930448855e-02	+9.979057878637941e-19
1.299999952316284e+00	+1.531385053226005e-02	-1.949726265202324e-02	+9.893006332982036e-19
1.399999976158142e+00	+1.545446668739442e-02	-2.273796477315022e-02	+9.899595110815479e-19
1.500000000000000e+00	+1.538088122319128e-02	-2.727496932154384e-02	+9.941372053082035e-19
1.600000023841858e+00	+1.555493106517932e-02	-2.880681464431722e-02	+1.008236108948359e-18
1.700000047683716e+00	+1.566900725770767e-02	-2.558664688391059e-02	+1.028957765315897e-18
1.799999952316284e+00	+1.577885338880114e-02	-2.395266390658691e-02	+1.044734371045165e-18
1.899999976158142e+00	+1.592853726196143e-02	-2.524286773159643e-02	+1.055310575445004e-18
2.000000000000000e+00	+1.606443285444037e-02	-2.397911746557429e-02	+1.058151207251308e-18
2.099999904632568e+00	+1.602411572425640e-02	-2.370530199646686e-02	+1.055615714285453e-18
2.200000047683716e+00	+1.627860023582380e-02	-2.188865124192417e-02	+1.052606817591112e-18
2.299999952316284e+00	+1.632818307076305e-02	-2.079455422979053e-02	+1.055864710566941e-18
2.400000095367432e+00	+1.655045055837787e-02	-1.884520525262433e-02	+1.059490452938607e-18
2.500000000000000e+00	+1.651863242180137e-02	-1.967400731386361e-02	+1.061697543148615e-18
2.599999904632568e+00	+1.663150098360944e-02	-2.149914061168909e-02	+1.065630035464588e-18
2.700000047683716e+00	+1.669837207820130e-02	-2.039966177758944e-02	+1.067187698652010e-18
2.799999952316284e+00	+1.668626404693326e-02	-1.929623842660533e-02	+1.068484223620012e-18
2.900000095367432e+00	+1.655932184645114e-02	-1.985983610525363e-02	+1.068556641893660e-18
3.000000000000000e+00	+1.668407990149181e-02	-2.214969930011421e-02	+1.070762425105992e-18
3.099999904632568e+00	+1.666157934390905e-02	-2.130052000260771e-02	+1.072350282763690e-18
3.200000047683716e+00	-2.004787837201964e-03	-1.080300748350424e-01	+1.471894837641780e-18
3.299999952316284e+00	+5.435150931096551e-02	+5.932752339937305e-01	+2.410422767285199e-18
3.400000095367432e+00	+3.756016744795852e-02	+4.787783071021777e-01	+2.408097914127046e-18
3.500000000000000e+00	+3.650891107031687e-02	+5.171645569379082e-01	+2.438987843775909e-18
3.599999904632568e+00	+3.242163898853485e-02	+5.018261872426411e-01	+2.362499180927573e-18
3.700000047683716e+00	+3.134747877764406e-02	+4.985506961481668e-01	+2.294966360120711e-18
3.799999952316284e+00	+3.066417906558548e-02	+4.937434431210412e-01	+2.244489773001330e-18
3.900000095367432e+00	+3.023313492887596e-02	+4.887094029836753e-01	+2.223494929318309e-18
4.000000000000000e+00	+3.019324461261449e-02	+4.856273992782431e-01	+2.242765317791580e-18
4.099999904632568e+00	+3.068817432978589e-02	+4.835215975379567e-01	+2.283145027612089e-18
4.199999809265137e+00	+3.082524621951529e-02	+4.812417793123067e-01	+2.285590715997879e-18
4.300000190734863e+00	+3.079212049180974e-02	+4.800855102397442e-01	+2.278423982181523e-18
4.400000095367432e+00	+3.084669762663657e-02	+4.783645147231979e-01	+2.264937047016557e-18
4.500000000000000e+00	+3.079011481462005e-02	+4.756753246864960e-01	+2.257789611919679e-18
4.599999904632568e+00	+3.086889834660369e-02	+4.737566186736278e-01	+2.256305939544136e-18
4.699999809265137e+00	+3.081141297796878e-02	+4.719148226569879e-01	+2.246816599970872e-18
4.800000190734863e+00	+3.082625287740198e-02	+4.691025388940925e-01	+2.244060627918699e-18
4.900000095367432e+00	+3.063560866534144e-02	+4.669410113977208e-01	+2.229091369712933e-18
5.000000000000000e+00	+3.067173101726253e-02	+4.648762665382088e-01	+2.224148708295197e-18
5.099999904632568e+00	+3.058430592004660e-02	+4.628573293362567e-01	+2.213655940759062e-18
5.199999809265137e+00	+3.069821459457540e-02	+4.617309494626379e-01	+2.210328040960539e-18
5.300000190734863e+00	+3.079343622584107e-02	+4.610688988010323e-01	+2.208977703432456e-18
5.400000095367432e+00	+3.077896775057036e-02	+4.608508375926708e-01	+2.197797162916775e-18
5.500000000000000e+00	+3.093742212827945e-02	+4.606373769543123e-01	+2.202195687502483e-18
5.599999904632568e+00	+3.089387759057877e-02	+4.601405353060893e-01	+2.199115527146068e-18
5.699999809265137e+00	+3.105696305822069e-02	+4.610488496456842e-01	+2.202518049212852e-18
5.800000190734863e+00	+3.100851963360331e-02	+4.606066195400772e-01	+2.196723897905813e-18
5.900000095367432e+00	+3.110812236138751e-02	+4.610531903591771e-01	+2.198501506090803e-18
6.000000000000000e+00	+3.097243995299053e-02	+4.609021513471074e-01	+2.194007996082055e-18
6.099999904632568e+00	+3.101362761574690e-02	+4.611948223406586e-01	+2.194407553655087e-18
6.199999809265137e+00	+2.972629039992843e-02	+4.503639774754055e-01	+1.097036512909419e-18
6.300000190734863e+00	+3.260731477794356e-02	+4.760526603383614e-01	+1.151701364603216e-18
6.400000095367432e+00	+3.204643781351657e-02	+4.728962854652952e-01	+1.146809989904836e-18
6.500000000000000e+00	+3.195041384089695e-02	+4.726911675685598e-01	+1.145245802462361e-18
6.599999904632568e+00	+3.201449980182482e-02	+4.733560661932954e-01	+1.148587576598521e-18
6.699999809265137e+00	+3.202390561982428e-02	+4.737831199012219e-01	+1.150158076109685e-18
6.800000190734863e+00	+3.172785312917153e-02	+4.720340997968157e-01	+1.141033193593904e-18
6.900000095367432e+00	+3.173493243443316e-02	+4.712892408233363e-01	+1.142371524149324e-18
7.000000000000000e+00	+3.145200804515581e-02	+4.692362321129679e-01	+1.133385309965886e-18
7.099999904632568e+00	+3.157499183567473e-02	+4.689319566364799e-01	+1.134164510308854e-18
7.199999809265137e+00	+3.138816133936213e-02	+4.671560875722845e-01	+1.125538729074121e-18
7.300000190734863e+00	+3.138936338239189e-02	+4.659771670645051e-01	+1.122989721836469e-18
7.400000095367432e+00	+3.134572525422694e-02	+4.646475378251885e-01	+1.119283353969352e-18
7.500000000000000e+00	+3.151800823589729e-02	+4.646676180771962e-01	+1.120271515486833e-18
7.599999904632568e+00	+3.142210506018057e-02	+4.630306767930451e-01	+1.115682714577759e-18
7.699999809265137e+00	+3.138785555703564e-02	+4.623984870658542e-01	+1.112554684277404e-18
7.800000190734863e+00	+3.157887727989966e-02	+4.630382043572869e-01	+1.115164116806035e-18
7.900000095367432e+00	+3.149936550591325e-02	+4.617565918658247e-01	+1.112519338295841e-18
8.000000000000000e+00	+3.147705889746445e-02	+4.620652507102387e-01	+1.105527023933125e-18
8.100000381469727e+00	+3.160726114943681e-02	+4.617839030302116e-01	+1.112497820586856e-18
8.199999809265137e+00	+3.151005357186001e-02	+4.613059401759948e-01	+1.109393010593089e-18
8.300000190734863e+00	+3.148077254453736e-02	+4.610599944570076e-01	+1.109609662430168e-18
8.399999618530273e+00	+3.172853426366556e-02	+4.626453810888214e-01	+1.114934580452969e-18
8.500000000000000e+00	+3.151837988046190e-02	+4.609735691788948e-01	+1.110364774476562e-18
8.600000381469727e+00	+3.171590126932508e-02	+4.624663858939745e-01	+1.115798915211323e-18
8.699999809265137e+00	+3.173444645514675e-02	+4.622986284518721e-01	+1.111825739367478e-18
8.800000190734863e+00	+3.165649841345796e-02	+4.617397964295457e-01	+1.112264114912859e-18
8.899999618530273e+00	+3.158911319535539e-02	+4.614905465731836e-01	+1.112277570599189e-18
9.000000000000000e+00	+3.155810181649728e-02	+4.617121438976023e-01	+1.105352221985030e-18
9.100000381469727e+00	+3.167683384306057e-02	+4.618975021032910e-01	+1.111906252603993e-18
9.199999809265137e+00	+3.012171601746039e-02	+4.498596759278811e-01	+8.104946056532837e-19
9.300000190734863e+00	+3.288413253410090e-02	+4.759439485750881e-01	+7.395946441351842e-19
9.399999618530273e+00	+3.288546616392522e-02	+4.765050909497373e-01	+7.398678929979284e-19
9.500000000000000e+00	+3.270075785410174e-02	+4.755711135714913e-01	+7.437706609291332e-19
9.600000381469727e+00	+3.256858508764258e-02	+4.749870789360839e-01	+7.462507206345050e-19
9.699999809265137e+00	+3.254334234950139e-02	+4.748623082102794e-01	+7.473458771630593e-19
9.800000190734863e+00	+3.249055250239334e-02	+4.745651176017480e-01	+7.482155937473572e-19
9.899999618530273e+00	+3.240415793532104e-02	+4.736998178716985e-01	+7.495011617530968e-19
1.000000000000000e+01	+3.231642714216768e-02	+4.731485839945546e-01	+7.520229002809297e-19
  1.0100000381469727e+01	+2.540365922424740e-02	+6.453651363356675e-01	+8.973265730709870e-19
1.019999980926514e+01	+1.567880600128580e-02	-1.495208185333884e-01	+1.012832246309588e-18
1.030000019073486e+01	+1.715512929931033e-02	-1.731673412563605e-02	+9.709364052994657e-19
1.039999961853027e+01	+1.761802133489762e-02	-3.995665563856914e-02	+1.056793532708868e-18
1.050000000000000e+01	+1.759003629849146e-02	-3.748168782236361e-02	+1.087577873965996e-18
1.060000038146973e+01	+1.700827492938313e-02	-2.913498640595038e-02	+1.082446945224176e-18
1.069999980926514e+01	+1.718914054961204e-02	-2.701817206597649e-02	+1.122132061850587e-18
1.080000019073486e+01	+1.715660160422709e-02	-1.948406921369340e-02	+1.118179590877718e-18
1.089999961853027e+01	+1.740788979827767e-02	-2.083540323186878e-02	+1.133395279680851e-18
1.100000000000000e+01	+1.726363996754906e-02	-1.916267167001935e-02	+1.136283780203269e-18
1.110000038146973e+01	+1.750548309883321e-02	-1.708977826898461e-02	+1.138276230803977e-18
1.119999980926514e+01	+1.746692329669816e-02	-1.471687790093969e-02	+1.147609843808903e-18
1.130000019073486e+01	+1.768855105541148e-02	-1.311470064207665e-02	+1.167772594529942e-18
1.139999961853027e+01	+1.766660899141647e-02	-7.412723391140272e-03	+1.176676777609069e-18
1.150000000000000e+01	+1.770834285957226e-02	-5.234624711467675e-03	+1.170266656793741e-18
1.160000038146973e+01	+1.781195759075141e-02	-3.543291045294121e-03	+1.165736711744734e-18
1.169999980926514e+01	+1.785962339408957e-02	-3.361792713397365e-04	+1.163169212808435e-18
1.180000019073486e+01	+1.787959850801412e-02	+1.449973587680229e-03	+1.162016625147082e-18
1.189999961853027e+01	+1.787788489522411e-02	+2.569617855392042e-03	+1.159393824724379e-18
1.200000000000000e+01	+1.788149505245702e-02	+3.524246581832660e-03	+1.154773540135992e-18
1.210000038146973e+01	+1.787231237924469e-02	+4.243300081672618e-03	+1.154177564910788e-18
1.219999980926514e+01	+1.788413997773153e-02	+5.380088240501622e-03	+1.151259487648454e-18
1.230000019073486e+01	+1.786515104617469e-02	+5.248271734291493e-03	+1.149147748431615e-18
1.239999961853027e+01	+1.788917058085152e-02	+6.092412992598353e-03	+1.146780155245495e-18
1.250000000000000e+01	+1.775697134388091e-02	+7.941550918269962e-03	+1.142786742663453e-18
1.260000038146973e+01	-5.928167970013834e-02	-2.133234570966071e-01	+1.570322290361799e-19
1.269999980926514e+01	+1.555617206884072e-01	+1.118691091642390e+00	-3.230092883358125e-18
1.280000019073486e+01	+8.844774352116457e-02	+8.931818243122439e-01	-2.993959106787209e-18
1.289999961853027e+01	+7.935139231917875e-02	+9.275600937307794e-01	-3.143296341493472e-18
1.300000000000000e+01	+7.197899052713158e-02	+9.164797690846522e-01	-3.036755170503186e-18
1.310000038146973e+01	+6.792747294773534e-02	+8.874219927047726e-01	-2.789550910773718e-18
1.319999980926514e+01	+6.461707579323525e-02	+8.422203139866878e-01	-2.476513765216571e-18
1.330000019073486e+01	+6.500802160923234e-02	+8.047318212245823e-01	-2.257934477719604e-18
1.339999961853027e+01	+6.610299577244517e-02	+7.609306057024255e-01	-2.074101599083770e-18
1.350000000000000e+01	+6.603097804223609e-02	+7.244644029477362e-01	-1.919616513378014e-18
1.360000038146973e+01	+6.657671238785358e-02	+6.925510864079919e-01	-1.807339266844705e-18
1.369999980926514e+01	+7.024153127761039e-02	+6.781826528609067e-01	-1.753041376837202e-18
1.380000019073486e+01	+7.186501105874300e-02	+6.692202176330404e-01	-1.734939574292747e-18
1.389999961853027e+01	+7.265825827516284e-02	+6.622280918251376e-01	-1.721070963487494e-18
1.400000000000000e+01	+7.168624373141730e-02	+6.564494650991696e-01	-1.704123820384885e-18
1.410000038146973e+01	+7.026462111766861e-02	+6.522498404243960e-01	-1.700274951386909e-18
1.419999980926514e+01	+6.957652678552159e-02	+6.501715739866266e-01	-1.728624177651021e-18
1.430000019073486e+01	+6.966420076730781e-02	+6.496761832496873e-01	-1.756778103007864e-18
1.439999961853027e+01	+7.027718785960138e-02	+6.517446068968918e-01	-1.783041861946703e-18
1.450000000000000e+01	+7.048733865496887e-02	+6.542286745887907e-01	-1.800461995197460e-18
1.460000038146973e+01	+7.145447535093519e-02	+6.623599666180694e-01	-1.829422173172687e-18
1.469999980926514e+01	+7.290796131465802e-02	+6.748747163494847e-01	-1.882479688847761e-18
1.480000019073486e+01	+7.144891825459927e-02	+6.761569781074436e-01	-1.911151000553150e-18
1.489999961853027e+01	+7.212624067860664e-02	+6.812767082384685e-01	-1.921657569703519e-18
1.500000000000000e+01	+7.209129130073633e-02	+6.853772652347101e-01	-1.944595587499544e-18
1.510000038146973e+01	+7.210081470889201e-02	+6.880131586284938e-01	-1.949457744323112e-18
1.519999980926514e+01	+7.154802402507193e-02	+6.887217956235594e-01	-1.949688395048192e-18
1.530000019073486e+01	+7.136700503081739e-02	+6.893934136954980e-01	-1.946876852846455e-18
1.539999961853027e+01	+7.126638493814523e-02	+6.895282701151593e-01	-1.951245697347856e-18
1.550000000000000e+01	+7.117263081320581e-02	+6.898793757486132e-01	-1.953186542169085e-18
1.560000038146973e+01	+7.178355866998518e-02	+7.368281724102038e-01	+2.281020386842887e-18
1.569999980926514e+01	+3.768800105105362e-02	+4.771881883521065e-01	+2.156523358384056e-18
1.580000019073486e+01	+5.017787022924038e-02	+5.405106864562140e-01	+2.143729202933994e-18
1.589999961853027e+01	+4.859906709344307e-02	+5.352803903792547e-01	+2.121209444137088e-18
1.600000000000000e+01	+4.882432124167389e-02	+5.436108208672323e-01	+2.135912581506174e-18
1.610000038146973e+01	+4.890100570703879e-02	+5.529541424919531e-01	+2.148640894285681e-18
1.620000076293945e+01	+4.808924642095106e-02	+5.599696008662085e-01	+2.167667470690908e-18
1.629999923706055e+01	+4.697549487154461e-02	+5.642399660308118e-01	+2.187258811277111e-18
1.639999961853027e+01	+4.579703366489298e-02	+5.682537024972256e-01	+2.202899672751225e-18
1.650000000000000e+01	+4.510967907932219e-02	+5.734444874474290e-01	+2.215878835638801e-18
1.660000038146973e+01	+4.464709263685087e-02	+5.781911683150178e-01	+2.227356928643078e-18
1.670000076293945e+01	+4.434000803679641e-02	+5.827484191821297e-01	+2.237869324372191e-18
1.679999923706055e+01	+4.384334797421814e-02	+5.852407295184375e-01	+2.245071033284529e-18
1.689999961853027e+01	+4.346469241135419e-02	+5.871777538836928e-01	+2.249196819342023e-18
1.700000000000000e+01	+4.355214579627864e-02	+5.902311921871417e-01	+2.252568549133089e-18
1.710000038146973e+01	+4.347964609508521e-02	+5.913363243325171e-01	+2.253324947711725e-18
1.720000076293945e+01	+4.342909215734798e-02	+5.919683379984381e-01	+2.250893790130216e-18
1.729999923706055e+01	+4.347420078929730e-02	+5.925966675941291e-01	+2.249533079583711e-18
1.739999961853027e+01	+4.357611558437589e-02	+5.933696703756810e-01	+2.240712458916972e-18
1.750000000000000e+01	+4.385170202662080e-02	+5.935088735280385e-01	+2.239294367018768e-18
1.760000038146973e+01	+4.397494864108470e-02	+5.931924731013074e-01	+2.234971620369518e-18
1.770000076293945e+01	+4.397938642596756e-02	+5.926816755679682e-01	+2.228539250225492e-18
1.779999923706055e+01	+4.430524398188415e-02	+5.922257895563404e-01	+2.224701630706092e-18
1.789999961853027e+01	+4.427602073429356e-02	+5.909083307903295e-01	+2.219900728591599e-18
1.800000000000000e+01	+4.438519124432225e-02	+5.901065490497012e-01	+2.214823146565922e-18
1.810000038146973e+01	+4.449274429056761e-02	+5.888661515423902e-01	+2.212110607900498e-18
1.820000076293945e+01	+4.467548525438481e-02	+5.879508774255661e-01	+2.207776108435838e-18
1.829999923706055e+01	+4.488908923731173e-02	+5.875794604640526e-01	+2.203823936855211e-18
1.839999961853027e+01	+4.517863724967531e-02	+5.876586438040423e-01	+2.196463525368604e-18
1.850000000000000e+01	+4.560391179128657e-02	+5.875333014542891e-01	+2.195930041793052e-18
1.860000038146973e+01	+5.496251626910925e-02	+6.490668613725530e-01	+4.742907411819970e-19
1.870000076293945e+01	+3.392467641596634e-02	+4.910174608973464e-01	+9.492065986620132e-19
1.879999923706055e+01	+3.755964857991292e-02	+5.116485203091595e-01	+8.659248396497064e-19
1.889999961853027e+01	+3.936314615713690e-02	+5.128463585074555e-01	+8.431967651765054e-19
1.900000000000000e+01	+3.964438391968899e-02	+5.134714751942407e-01	+8.259930536457109e-19
1.910000038146973e+01	+3.911861475503144e-02	+5.124096650335908e-01	+8.280110395643736e-19
1.920000076293945e+01	+3.882358297954300e-02	+5.133284799436842e-01	+8.364129860340501e-19
1.929999923706055e+01	+3.866493625223295e-02	+5.156857859330154e-01	+8.412022854869161e-19
1.939999961853027e+01	+3.830839588529243e-02	+5.160464349784909e-01	+8.528398200881724e-19
1.950000000000000e+01	+3.817771071183795e-02	+5.178008011199695e-01	+8.540135685509879e-19
1.960000038146973e+01	+3.788650547733612e-02	+5.182536017005838e-01	+8.600448885951704e-19
1.970000076293945e+01	+3.789075317517311e-02	+5.209013858559898e-01	+8.571046730102026e-19
1.979999923706055e+01	+3.768552933143821e-02	+5.218016053475018e-01	+8.633145461238427e-19
1.989999961853027e+01	+3.769970362018459e-02	+5.242584037010284e-01	+8.682663527766925e-19
2.000000000000000e+01	+3.771214675891239e-02	+5.262082909244029e-01	+8.604099496565109e-19
