# Trim_Forces           
# Time                  	total_x                 	total_y                 	total_z                 
1.00000e-01	+1.395189334529633e-01	-2.055470035321651e-01	+1.657697898186876e-17
0.1
0.1
0.1
2.00000e-01	-1.640868551427575e-02	+4.580258997709620e-01	+3.270130917194486e-18
0.2
0.2
0.2
3.00000e-01	+3.242793349578462e-02	+5.217591626165496e-01	+4.227694741560641e-18
0.3
0.3
0.3
4.00000e-01	+2.062998971339165e-02	+5.142189766697240e-01	+4.158675149640849e-18
0.4
0.4
0.4
5.00000e-01	+2.589866611549207e-02	+5.307276649956357e-01	+3.941125317319405e-18
0.5
0.5
0.5
6.00000e-01	+2.665066754862037e-02	+5.383968231239828e-01	+3.878787104512963e-18
0.6
0.6
0.6
7.00000e-01	+2.646760583319756e-02	+5.374372164316835e-01	+3.833458723488632e-18
0.7
0.7
0.7
8.00000e-01	+2.650665595292922e-02	+5.452145935736304e-01	+3.800013564758296e-18
0.8
0.8
0.8
9.00000e-01	+2.612114043806725e-02	+5.421929933901144e-01	+3.777480335412959e-18
0.9
0.9
0.9
1.00000e+00	+2.532694590017904e-02	+5.353790780533908e-01	+3.765692084730367e-18
1
1
1
1.10000e+00	+2.541658772762626e-02	+5.341158085326654e-01	+3.754060500494536e-18
1.1
1.1
1.1
1.20000e+00	+2.596019755222805e-02	+5.313367967384427e-01	+3.740727045036827e-18
1.2
1.2
1.2
1.30000e+00	+2.612444005569616e-02	+5.302343537972567e-01	+3.733430228814490e-18
1.3
1.3
1.3
1.40000e+00	+2.620733586666913e-02	+5.275565019798266e-01	+3.730209260388577e-18
1.4
1.4
1.4
1.50000e+00	+2.609022125900417e-02	+5.241609953884101e-01	+3.724591078957363e-18
1.5
1.5
1.5
1.60000e+00	+2.585750603781334e-02	+5.195511464355880e-01	+3.720654393953944e-18
1.6
1.6
1.6
1.70000e+00	+2.597223134530351e-02	+5.159614215989424e-01	+3.710975585550411e-18
1.7
1.7
1.7
1.80000e+00	+2.628584289299322e-02	+5.141844522618487e-01	+3.699008395356995e-18
1.8
1.8
1.8
1.90000e+00	+2.664982500339901e-02	+5.141920190462583e-01	+3.696528633553541e-18
1.9
1.9
1.9
2.00000e+00	+2.677893183030066e-02	+5.122420084879057e-01	+3.685628510303049e-18
2
2
2
2.10000e+00	+2.713888306667986e-02	+5.123862919920960e-01	+3.687074326957018e-18
2.1
2.1
2.1
2.20000e+00	+2.707702722804279e-02	+5.099393285825082e-01	+3.678660544803609e-18
2.2
2.2
2.2
2.30000e+00	+2.738424533822155e-02	+5.100122481856310e-01	+3.681585800464769e-18
2.3
2.3
2.3
2.40000e+00	+2.723685196874524e-02	+5.067198855668315e-01	+3.669972596574808e-18
2.4
2.4
2.4
2.50000e+00	+2.759092429292317e-02	+5.066838088531291e-01	+3.669870244973221e-18
2.5
2.5
2.5
2.60000e+00	+2.757274978916022e-02	+5.040231369591738e-01	+3.658274606296524e-18
2.6
2.6
2.6
2.70000e+00	+2.786734341464905e-02	+5.039753764071809e-01	+3.657726757322009e-18
2.7
2.7
2.7
2.80000e+00	+2.783043346932550e-02	+5.015659154279101e-01	+3.647422061097227e-18
2.8
2.8
2.8
2.90000e+00	+2.809622631322630e-02	+5.018744023686733e-01	+3.646772050822351e-18
2.9
2.9
2.9
3.00000e+00	+2.802879537824271e-02	+5.002245839466234e-01	+3.640822720469544e-18
3
3
3
3.10000e+00	+2.809837877076046e-02	+4.996943604049182e-01	+3.638039287628686e-18
3.1
3.1
3.1
3.20000e+00	+2.800116944523793e-02	+4.985908391912069e-01	+3.634231411071578e-18
3.2
3.2
3.2
3.30000e+00	+2.796682923689570e-02	+4.981606498912262e-01	+3.632045685434622e-18
3.3
3.3
3.3
3.40000e+00	+2.790053077751703e-02	+4.977405772700326e-01	+3.629251669448759e-18
3.4
3.4
3.4
3.50000e+00	+2.781587061550936e-02	+4.973390411494477e-01	+3.626399525568225e-18
3.5
3.5
3.5
3.60000e+00	+2.766004460545440e-02	+4.966529723632951e-01	+3.622502486903278e-18
3.6
3.6
3.6
3.70000e+00	+2.743670546063433e-02	+4.953448899737746e-01	+3.615471341737304e-18
3.7
3.7
3.7
3.80000e+00	+2.731094863546430e-02	+4.942721090692705e-01	+3.607609218406992e-18
3.8
3.8
3.8
3.90000e+00	+2.724547387917621e-02	+4.937962819141409e-01	+3.604299346598034e-18
3.9
3.9
3.9
4.00000e+00	+2.720256578131998e-02	+4.934885830348789e-01	+3.602101610521500e-18
4
4
4
4.10000e+00	+2.710993872892638e-02	+4.929195595062099e-01	+3.599758582271969e-18
4.1
4.1
4.1
4.20000e+00	+2.709190263674339e-02	+4.929743222961920e-01	+3.597868836499923e-18
4.2
4.2
4.2
4.30000e+00	+2.712278084696194e-02	+4.929623794014596e-01	+3.593234640507585e-18
4.3
4.3
4.3
4.40000e+00	+2.713389281599649e-02	+4.925906253590760e-01	+3.587619558332541e-18
4.4
4.4
4.4
4.50000e+00	+2.720742442815814e-02	+4.924525657686828e-01	+3.583009531506898e-18
4.5
4.5
4.5
4.60000e+00	+2.724821297505273e-02	+4.922097567043330e-01	+3.578495488803853e-18
4.6
4.6
4.6
4.70000e+00	+2.732197478392219e-02	+4.921310653711954e-01	+3.575951359774931e-18
4.7
4.7
4.7
4.80000e+00	+2.738627246513557e-02	+4.920911013177937e-01	+3.574557467610430e-18
4.8
4.8
4.8
4.90000e+00	+2.742394831287631e-02	+4.919624807138742e-01	+3.573197408660558e-18
4.9
4.9
4.9
5.00000e+00	+1.683958512363857e-03	+4.142016630801025e-01	+1.467725417345211e-18
5
5
5
5.10000e+00	+1.014984184725511e-01	+9.947899851048551e-01	+1.433380653289414e-18
5.1
5.1
5.1
5.20000e+00	+7.545743009133921e-02	+9.127792850371681e-01	+1.103529652406183e-18
5.2
5.2
5.2
5.30000e+00	+7.022229601807693e-02	+9.280821648842018e-01	+9.941624065302126e-19
5.3
5.3
5.3
5.40000e+00	+6.552943983564288e-02	+9.066273199222938e-01	+9.019979114909419e-19
5.4
5.4
5.4
5.50000e+00	+6.225271707354495e-02	+8.692421144002644e-01	+7.785071542891077e-19
5.5
5.5
5.5
5.60000e+00	+6.229323686259128e-02	+8.325879637146097e-01	+6.398743399917727e-19
5.6
5.6
5.6
5.70000e+00	+6.599826182228555e-02	+8.078834348599164e-01	+5.802889272255797e-19
5.7
5.7
5.7
5.80000e+00	+6.500979302668410e-02	+7.595930547792709e-01	+5.350412844446244e-19
5.8
5.8
5.8
5.90000e+00	+6.532002733081721e-02	+7.293525995270478e-01	+5.003419112325672e-19
5.9
5.9
5.9
6.00000e+00	+6.826756569142299e-02	+7.123168210786748e-01	+5.279241544849734e-19
6
6
6
6.10000e+00	+7.196854289348741e-02	+7.062831092693334e-01	+5.621017341390728e-19
6.1
6.1
6.1
6.20000e+00	+7.263882559556524e-02	+6.923109130827496e-01	+5.811824282965463e-19
6.2
6.2
6.2
6.30000e+00	+7.157404237916221e-02	+6.760397857546520e-01	+5.753168585377425e-19
6.3
6.3
6.3
6.40000e+00	+7.166270839044206e-02	+6.692885803195899e-01	+5.671188439199655e-19
6.4
6.4
6.4
6.50000e+00	+7.037521017031989e-02	+6.609532706163745e-01	+5.759391611000065e-19
6.5
6.5
6.5
6.60000e+00	+7.041684101252289e-02	+6.601765127235475e-01	+6.204622243901233e-19
6.6
6.6
6.6
6.70000e+00	+7.139708058650185e-02	+6.648554499487910e-01	+6.646940618783491e-19
6.7
6.7
6.7
6.80000e+00	+7.031997544360556e-02	+6.623044295555636e-01	+6.976781895972864e-19
6.8
6.8
6.8
6.90000e+00	+6.991204500837203e-02	+6.606836585563864e-01	+7.254837062465351e-19
6.9
6.9
6.9
7.00000e+00	+7.045736640633708e-02	+6.642549685666678e-01	+7.352191202014480e-19
7
7
7
7.10000e+00	+7.139763825616931e-02	+6.721826722905604e-01	+7.382145196187497e-19
7.1
7.1
7.1
7.20000e+00	+7.224896494986897e-02	+6.795237155463546e-01	+7.381368464754272e-19
7.2
7.2
7.2
7.30000e+00	+7.232619947149588e-02	+6.844624736626089e-01	+7.512227514082527e-19
7.3
7.3
7.3
7.40000e+00	+7.233538074198229e-02	+6.888233235408465e-01	+7.375926060239417e-19
7.4
7.4
7.4
7.50000e+00	+7.224161742260705e-02	+6.917282799309360e-01	+7.409743063636355e-19
7.5
7.5
7.5
7.60000e+00	+7.220655781738176e-02	+6.927243583221889e-01	+7.301373229309813e-19
7.6
7.6
7.6
7.70000e+00	+7.244495184049841e-02	+6.940175613521967e-01	+7.267657424737328e-19
7.7
7.7
7.7
7.80000e+00	+7.223500764408659e-02	+6.935037752879905e-01	+7.232468608349491e-19
7.8
7.8
7.8
7.90000e+00	+7.216503738281492e-02	+6.934414543794205e-01	+7.153118879985125e-19
7.9
7.9
7.9
8.00000e+00	+7.199116655826608e-02	+6.932334036667170e-01	+7.086480312253609e-19
8
8
8
8.10000e+00	+7.177577769745777e-02	+6.926130445549668e-01	+7.102773747245937e-19
8.1
8.1
8.1
8.20000e+00	+7.151726634511414e-02	+6.917239644971633e-01	+7.164415135838398e-19
8.2
8.2
8.2
8.30000e+00	+7.140266160656046e-02	+6.911913522382701e-01	+7.155734560125010e-19
8.3
8.3
8.3
8.40000e+00	+7.131774479576342e-02	+6.907623407429864e-01	+7.125707252471970e-19
8.4
8.4
8.4
8.50000e+00	+7.142223216404672e-02	+6.905873751949959e-01	+7.107496397768327e-19
8.5
8.5
8.5
8.60000e+00	+7.128917614390917e-02	+6.903161969565853e-01	+7.155357048017104e-19
8.6
8.6
8.6
8.70000e+00	+7.128873346896158e-02	+6.901985093716506e-01	+7.091353993991205e-19
8.7
8.7
8.7
8.80000e+00	+7.128217355175920e-02	+6.905373253065662e-01	+7.180393770797718e-19
8.8
8.8
8.8
8.90000e+00	+7.151796055292325e-02	+6.908673387607461e-01	+7.146380053492478e-19
8.9
8.9
8.9
9.00000e+00	+7.142360925865934e-02	+6.908758013221564e-01	+7.166881327765199e-19
9
9
9
9.10000e+00	+7.142104087849588e-02	+6.911739592136360e-01	+7.187019969828463e-19
9.1
9.1
9.1
9.20000e+00	+7.144645764247091e-02	+6.913716533104020e-01	+7.183728643936652e-19
9.2
9.2
9.2
9.30000e+00	+7.144073799112997e-02	+6.915657146751024e-01	+7.190064293313485e-19
9.3
9.3
9.3
9.40000e+00	+7.142003721504761e-02	+6.917304231673546e-01	+7.198179706025391e-19
9.4
9.4
9.4
9.50000e+00	+7.139205016237446e-02	+6.918517043609045e-01	+7.209277682009117e-19
9.5
9.5
9.5
9.60000e+00	+7.137764453236864e-02	+6.919732209616006e-01	+7.217105256492651e-19
9.6
9.6
9.6
9.70000e+00	+7.135970443782885e-02	+6.921012324826241e-01	+7.224927167582863e-19
9.7
9.7
9.7
9.80000e+00	+7.134225719493656e-02	+6.922032857774619e-01	+7.238311783885436e-19
9.8
9.8
9.8
9.90000e+00	+7.131630945127303e-02	+6.922967666930576e-01	+7.260564184434891e-19
9.9
9.9
9.9
1.00000e+01	-3.167723023116720e-02	+4.089065464343848e-01	+5.595678066732643e-19
10
10
10
1.01000e+01	+1.856648316094956e-01	+1.145270785798792e+00	+9.952609988223393e-20
10.1
10.1
10.1
1.02000e+01	+1.326258593072284e-01	+1.017589918783631e+00	+5.681860328307681e-19
10.2
10.2
10.2
1.03000e+01	+1.247961987319830e-01	+9.915854801485694e-01	+9.917460482249318e-19
10.3
10.3
10.3
1.04000e+01	+1.141405109909775e-01	+9.359482792839170e-01	+1.360732616381831e-18
10.4
10.4
10.4
1.05000e+01	+1.163389662099167e-01	+8.956707104583148e-01	+1.398617672699558e-18
10.5
10.5
10.5
1.06000e+01	+1.221265217060909e-01	+8.682149248446897e-01	+1.385001613074182e-18
10.6
10.6
10.6
1.07000e+01	+1.134500499431540e-01	+7.982242302340864e-01	+1.223792050087478e-18
10.7
10.7
10.7
1.08000e+01	+1.173832615078988e-01	+7.725369438181910e-01	+1.222356288750664e-18
10.8
10.8
10.8
1.09000e+01	+1.177473107190479e-01	+7.384874633854221e-01	+1.176792206266695e-18
10.9
10.9
10.9
1.10000e+01	+1.171663681046366e-01	+7.121647651483571e-01	+1.247967968914855e-18
11
11
11
1.11000e+01	+1.125809026085439e-01	+6.850891713408171e-01	+1.260572518088277e-18
11.1
11.1
11.1
1.12000e+01	+1.268147742728465e-01	+7.193472940298845e-01	+1.183960499185432e-18
11.2
11.2
11.2
1.13000e+01	+1.395064237208836e-01	+7.516573568074346e-01	+1.072693899819264e-18
11.3
11.3
11.3
1.14000e+01	+1.309961298766187e-01	+7.307245996293170e-01	+1.219698730119488e-18
11.4
11.4
11.4
1.15000e+01	+1.245684486221409e-01	+7.071259620781936e-01	+1.206508630444220e-18
11.5
11.5
11.5
             1.16000e+01	+6.242192103402475e-02	+7.457293135601600e-01	+3.793690173144004e-18
11.6
1.17000e+01	-9.724910100135938e-03	-4.062303236771078e-02	+6.336200027417557e-19
11.7
1.18000e+01	+3.859014646735958e-02	+4.403968861222181e-01	+1.919701803427561e-19
11.8
1.19000e+01	+1.828565105710445e-01	+1.018717714397407e+00	-1.938245556401079e-19
11.9
1.20000e+01	+1.510313697462554e-01	+9.692047272714081e-01	+8.070110915520715e-20
12
1.21000e+01	+1.432761002828360e-01	+9.834815737836358e-01	+5.526915669225819e-19
12.1
1.22000e+01	+1.448190268762881e-01	+9.822936757691938e-01	+9.049032576786575e-19
12.2
1.23000e+01	+1.342564195885009e-01	+9.257695995465176e-01	+1.070640513236542e-18
12.3
1.24000e+01	+1.330017939136687e-01	+8.803677323965889e-01	+1.150115847601278e-18
12.4
1.25000e+01	+1.190124628775946e-01	+7.950194839085656e-01	+1.136329595829770e-18
12.5
1.26000e+01	+1.139683013717751e-01	+7.288328011817079e-01	+1.283235197807821e-18
12.6
1.27000e+01	+1.066107401974580e-01	+6.673251190142291e-01	+1.325119391972743e-18
12.7
1.28000e+01	+1.082319380938437e-01	+6.499084717543940e-01	+1.282039032711800e-18
12.8
1.29000e+01	+1.216618296998929e-01	+6.757845072986292e-01	+1.247663043329268e-18
12.9
1.30000e+01	+1.274335537553078e-01	+6.841078618505364e-01	+1.256269177582263e-18
13
1.31000e+01	+1.294619533650236e-01	+6.971696020075497e-01	+1.253193185922733e-18
13.1
1.32000e+01	+1.364352500062413e-01	+7.301160409794712e-01	+1.350903433282758e-18
13.2
1.33000e+01	+1.342271579513067e-01	+7.387129884089761e-01	+1.333862289556757e-18
13.3
1.34000e+01	+1.308365824206811e-01	+7.372038905886473e-01	+1.261072357487188e-18
13.4
1.35000e+01	+1.242066605026104e-01	+7.198951447647273e-01	+1.338862761342932e-18
13.5
1.36000e+01	+1.266366113473258e-01	+7.219150040821497e-01	+1.265326360106935e-18
13.6
1.37000e+01	+1.279854393560855e-01	+7.256084809161922e-01	+1.211669793531728e-18
13.7
1.38000e+01	+1.290696843690875e-01	+7.244326387067638e-01	+1.248339697446877e-18
13.8
1.39000e+01	+1.264340868516884e-01	+7.109110214800352e-01	+1.163225690802821e-18
13.9
1.40000e+01	+1.267613559675262e-01	+7.096901679199339e-01	+1.187716605783089e-18
14
1.41000e+01	+1.298721522725399e-01	+7.114062228393023e-01	+1.050458541212885e-18
14.1
1.42000e+01	+1.323934410631191e-01	+7.155986161206430e-01	+1.062367921102592e-18
14.2
1.43000e+01	+1.326511544299154e-01	+7.127939174936960e-01	+9.788418945770491e-19
14.3
1.44000e+01	+1.337510252748041e-01	+7.139274801915365e-01	+1.010204653337246e-18
14.4
1.45000e+01	+1.332503823838754e-01	+7.052365103563294e-01	+9.345308541853687e-19
14.5
1.46000e+01	+1.329058493753225e-01	+6.982573410725829e-01	+9.682867207501990e-19
14.6
1.47000e+01	+1.313156806721884e-01	+6.918466499522266e-01	+9.953511257157623e-19
14.7
1.48000e+01	+1.325650963853946e-01	+6.921795201762667e-01	+9.517434043751642e-19
14.8
1.49000e+01	+1.327191527519765e-01	+6.908013314035192e-01	+9.472362209537329e-19
14.9
1.50000e+01	+1.033202690200852e-01	+5.608774234759395e-01	-9.234405876517506e-19
15
1.51000e+01	+2.696649707048142e-01	+1.028092922654368e+00	-7.246595712323685e-20
15.1
1.52000e+01	+2.203795547870245e-01	+8.957347907463112e-01	-7.260781079239248e-21
15.2
1.53000e+01	+2.463912312686629e-01	+9.095572464205656e-01	+4.291267303672995e-19
15.3
1.54000e+01	+2.644065147365178e-01	+8.869848371296006e-01	+9.987728514784627e-19
15.4
1.55000e+01	+2.782140107822413e-01	+8.461124021972646e-01	+1.447051055385057e-18
15.5
1.56000e+01	+2.675918083526105e-01	+7.547640865328411e-01	+1.610826467322513e-18
15.6
1.57000e+01	+2.386348534191121e-01	+6.479252637019024e-01	+1.213301272518024e-18
15.7
1.58000e+01	+2.081999434013865e-01	+5.670953745504630e-01	+4.353280915798201e-19
15.8
1.59000e+01	+2.326310641964464e-01	+6.106374640995766e-01	+1.743820213008471e-19
15.9
1.60000e+01	+2.612934058861728e-01	+6.748989919951154e-01	+1.711898354346042e-19
16
1.61000e+01	+2.402013709607466e-01	+6.244834662838911e-01	+2.785768054149513e-19
16.1
1.62000e+01	+2.024753562054500e-01	+5.120719130157975e-01	+4.810985561019540e-19
16.2
1.63000e+01	+1.850290737884456e-01	+4.454290227253307e-01	+6.240196423387579e-19
16.3
1.64000e+01	+2.049267682683307e-01	+4.886879538258093e-01	+7.713684329054105e-19
16.4
1.65000e+01	+2.580112705755096e-01	+6.277169908151418e-01	+7.792436554767629e-19
16.5
1.66000e+01	+2.607196481616150e-01	+6.631882035296576e-01	+5.646923449933693e-19
16.6
1.67000e+01	+2.390775245274416e-01	+6.260594538879248e-01	+6.972624521370636e-19
16.7
1.68000e+01	+2.093207074730045e-01	+5.576395986896915e-01	+7.437317548900888e-19
16.8
1.69000e+01	+2.395871474695131e-01	+6.154771578823753e-01	+1.066475818302070e-18
16.9
1.70000e+01	+2.826317556818652e-01	+7.220952660976996e-01	+1.173760961926520e-18
17
1.71000e+01	+2.832857134469928e-01	+7.386072217378439e-01	+9.784136387945322e-19
17.1
1.72000e+01	+2.270881838943550e-01	+6.055091801739293e-01	+7.520201165925436e-19
17.2
1.73000e+01	+1.999841156640605e-01	+5.239124137028377e-01	+6.606498822181552e-19
17.3
1.74000e+01	+2.006693945297062e-01	+5.138035909504703e-01	+7.499345912200013e-19
17.4
1.75000e+01	+2.585546377820215e-01	+6.484595309473657e-01	+8.836368540898879e-19
17.5
1.76000e+01	+2.716732707278859e-01	+7.009382152012182e-01	+7.436182664355264e-19
17.6
1.77000e+01	+2.472041639047915e-01	+6.470702908121714e-01	+7.645359983872006e-19
17.7
1.78000e+01	+2.112951689631620e-01	+5.570534661964315e-01	+7.368777395302702e-19
17.8
1.79000e+01	+2.212078532659562e-01	+5.650601531475121e-01	+9.365796546119945e-19
17.9
1.80000e+01	+2.654441017026211e-01	+6.704342699092919e-01	+1.026952278192221e-18
18
1.81000e+01	+2.776945846043132e-01	+7.188606407778324e-01	+8.482352390400449e-19
18.1
1.82000e+01	+2.427596263004490e-01	+6.351448145931368e-01	+7.362094700031919e-19
18.2
1.83000e+01	+2.093641180791155e-01	+5.432656605179835e-01	+7.240955318986395e-19
18.3
1.84000e+01	+1.993073648183126e-01	+5.033939720757554e-01	+7.492817126980316e-19
18.4
1.85000e+01	+2.456992540109235e-01	+6.141485888975645e-01	+8.922320373983091e-19
18.5
1.86000e+01	+2.742907375257889e-01	+7.000237477919083e-01	+7.432456793595464e-19
18.6
1.87000e+01	+2.621581636917972e-01	+6.793878752541900e-01	+7.302369592806956e-19
18.7
1.88000e+01	+2.159880992548617e-01	+5.648577728119056e-01	+7.916804794634269e-19
18.8
1.89000e+01	+2.137341656393209e-01	+5.375654761000749e-01	+9.557889050580522e-19
18.9
1.90000e+01	+2.475997163136354e-01	+6.207691857490716e-01	+9.972090099428321e-19
19
1.91000e+01	+2.794778343465595e-01	+7.108660284555585e-01	+8.833849476651237e-19
19.1
1.92000e+01	+2.562282097750240e-01	+6.648729938514465e-01	+6.828668493869769e-19
19.2
1.93000e+01	+2.203981574735970e-01	+5.717363574040730e-01	+7.634133971849697e-19
19.3
1.94000e+01	+2.065878268015816e-01	+5.177815313071531e-01	+8.282085698205583e-19
19.4
1.95000e+01	+2.369859388874783e-01	+5.984369945697087e-01	+9.019199417548505e-19
19.5
1.96000e+01	+2.789489889785718e-01	+7.062670091770890e-01	+8.563561296715147e-19
19.6
1.97000e+01	+2.737291119633976e-01	+7.069363458360431e-01	+7.293153361232290e-19
19.7
1.98000e+01	+2.284949324695606e-01	+5.947550721709189e-01	+7.884227039902632e-19
19.8
1.99000e+01	+2.053704285661185e-01	+5.181848889682635e-01	+8.360340796667884e-19
19.9
2.00000e+01	+1.617145633219804e-01	+3.469973445752355e-01	-8.182302601391308e-19
20
             2.01000e+01	+1.413694754588388e-01	+1.231111800295631e+00	+4.210088947031634e-18
2.02000e+01	+3.166347394507497e-02	-1.143199763948605e-01	+1.878746906660168e-18
2.03000e+01	+1.014730381443449e-01	+3.832618726449490e-01	+4.866163190986619e-19
2.04000e+01	+1.694845178403593e-01	+7.300113984391108e-01	-1.009972314903678e-18
2.05000e+01	+2.530114914116863e-01	+9.453904949105401e-01	+2.327148113976716e-18
2.06000e+01	+4.150345673225594e-01	+1.320315383839598e+00	+3.247182632092684e-18
2.07000e+01	+3.186937310405351e-01	+1.055002078570458e+00	+2.572728971219897e-18
2.08000e+01	+3.256313823284702e-01	+8.892622251487554e-01	+1.610700769421854e-18
2.09000e+01	+2.856279595148772e-01	+6.811871587233753e-01	+1.317335047971044e-18
2.10000e+01	+2.503900534892312e-01	+5.662932301624429e-01	+8.330494708608334e-19
2.11000e+01	+2.457953465659870e-01	+5.724042760701386e-01	+1.356746504478754e-18
2.12000e+01	+3.620234755584295e-01	+7.999823045465250e-01	+2.255155532095749e-18
2.13000e+01	+3.805699817210095e-01	+8.577236380906319e-01	+2.270379143204253e-18
2.14000e+01	+2.853520974496929e-01	+7.132202848294225e-01	+1.914053561105366e-18
2.15000e+01	+2.696429657811464e-01	+6.754201692236571e-01	+1.499005187983112e-18
2.16000e+01	+2.800688054850756e-01	+7.023654572013238e-01	+2.006298673147729e-18
2.17000e+01	+3.325709193526004e-01	+8.018716709373217e-01	+2.328862473019120e-18
2.18000e+01	+3.569529864726020e-01	+8.652516877222651e-01	+2.484060991967389e-18
2.19000e+01	+3.074946287766019e-01	+7.778781567694769e-01	+2.054982300823822e-18
2.20000e+01	+2.791266219265232e-01	+7.092265765252715e-01	+1.563368524185583e-18
2.21000e+01	+2.932509148254217e-01	+7.224503631201843e-01	+1.650542478831804e-18
2.22000e+01	+3.194933305665549e-01	+7.869089519451907e-01	+2.388693359964205e-18
2.23000e+01	+3.562365234116320e-01	+8.645486235013757e-01	+2.634918000690371e-18
2.24000e+01	+3.271340971489458e-01	+8.204764144823231e-01	+2.264892528163284e-18
2.25000e+01	+2.846555439891907e-01	+7.307789989319154e-01	+1.744201185790205e-18
2.26000e+01	+2.890540878694122e-01	+7.248259463471944e-01	+1.670591847699450e-18
2.27000e+01	+3.022435065111543e-01	+7.614134295370225e-01	+2.189579562470793e-18
2.28000e+01	+3.505052937960473e-01	+8.571995070463134e-01	+2.535402619494529e-18
2.29000e+01	+3.131865977107473e-01	+7.965368947654871e-01	+2.174353889257322e-18
2.30000e+01	+2.827067285689675e-01	+7.278961687191018e-01	+1.762849116685950e-18
2.31000e+01	+2.848957758415293e-01	+7.199982453334886e-01	+1.715311485614196e-18
2.32000e+01	+3.033518445645166e-01	+7.651658750942352e-01	+2.222947998081158e-18
2.33000e+01	+3.521658505598100e-01	+8.620480416402526e-01	+2.575725889583388e-18
2.34000e+01	+3.209361425111685e-01	+8.173195051194685e-01	+2.314168232152906e-18
2.35000e+01	+2.896367401892397e-01	+7.498537333890576e-01	+1.920967798944320e-18
2.36000e+01	+2.852037411029759e-01	+7.266207412955188e-01	+1.698958362382261e-18
2.37000e+01	+3.133399237822253e-01	+7.818400175302306e-01	+2.145521489890933e-18
2.38000e+01	+3.430532964293875e-01	+8.443404965125185e-01	+2.449635348030664e-18
2.39000e+01	+3.239243397760747e-01	+8.224414496836122e-01	+2.286151164318743e-18
2.40000e+01	+2.767180646997994e-01	+7.284802929070996e-01	+1.855816671628775e-18
2.41000e+01	+2.853554858438707e-01	+7.253505224885275e-01	+1.660944080937662e-18
2.42000e+01	+2.997745052394739e-01	+7.530160219799839e-01	+2.003209758696264e-18
2.43000e+01	+3.307087762171181e-01	+8.162584177155160e-01	+2.339286990282989e-18
2.44000e+01	+3.355478807932126e-01	+8.397411632423899e-01	+2.356420972082700e-18
2.45000e+01	+2.821293941369569e-01	+7.426813954397564e-01	+1.899596132059948e-18
2.46000e+01	+2.802779448409789e-01	+7.172927250381169e-01	+1.581660837338849e-18
2.47000e+01	+2.902115370155344e-01	+7.290348410481751e-01	+1.830558872469648e-18
2.48000e+01	+3.253016735491472e-01	+8.061752362353880e-01	+2.401107628748936e-18
2.49000e+01	+3.547498917875695e-01	+8.749227951333486e-01	+2.603687990335889e-18
2.50000e+01	+2.144302873987081e-01	+5.780740658938432e-01	-3.041335173856322e-18
2.51000e+01	+4.644394912971953e-01	+9.861446307746330e-01	-6.598461121734096e-18
2.52000e+01	+3.969254015157281e-01	+8.506152482800653e-01	-5.039549835319087e-18
2.53000e+01	+3.668487406717775e-01	+7.729896554375510e-01	-4.375219443417938e-18
2.54000e+01	+3.670093671957990e-01	+7.522074850581661e-01	-4.256186394092214e-18
2.55000e+01	+3.950244873147225e-01	+7.975900839829940e-01	-4.647017236690773e-18
2.56000e+01	+4.018863393846386e-01	+8.098479910245899e-01	-4.605911401721637e-18
2.57000e+01	+3.996502987757952e-01	+7.972278504588243e-01	-4.600670363630284e-18
2.58000e+01	+3.464798489444109e-01	+7.070934938456045e-01	-4.029190077733040e-18
2.59000e+01	+3.468202031582714e-01	+6.986704816826245e-01	-3.815019031473477e-18
2.60000e+01	+3.881169396124486e-01	+7.601109156247273e-01	-4.219065995493455e-18
2.61000e+01	+4.194296549101442e-01	+8.157386903187862e-01	-4.891726219879643e-18
2.62000e+01	+4.096167520147327e-01	+8.040120511768297e-01	-4.810108920898833e-18
2.63000e+01	+3.542437479633165e-01	+7.153304848768778e-01	-4.380240767888150e-18
2.64000e+01	+3.457932692909748e-01	+6.954240293252116e-01	-3.997726864978035e-18
2.65000e+01	+3.929325972770028e-01	+7.662566246531353e-01	-4.445724229979167e-18
2.66000e+01	+4.088533346578224e-01	+8.049455246969234e-01	-4.783904603269653e-18
2.67000e+01	+4.126237414926622e-01	+8.129735568182663e-01	-5.124809447809411e-18
2.68000e+01	+3.979300286893921e-01	+7.840586937465416e-01	-4.755556023807432e-18
2.69000e+01	+3.440646196332392e-01	+6.982285117556444e-01	-4.043728249765491e-18
2.70000e+01	+3.498495643950509e-01	+7.018646742179332e-01	-3.891833892664018e-18
2.71000e+01	+3.986480104526668e-01	+7.831379126451082e-01	-4.628455411098922e-18
2.72000e+01	+4.342790693544581e-01	+8.443399386395508e-01	-5.496964590979164e-18
2.73000e+01	+4.227770007975486e-01	+8.294657252718797e-01	-5.370428337641104e-18
2.74000e+01	+3.667952694628666e-01	+7.399907531827009e-01	-4.503706409216172e-18
2.75000e+01	+3.415737498958941e-01	+6.938485167810663e-01	-3.875970865647701e-18
2.76000e+01	+3.731026395015958e-01	+7.390594165976584e-01	-4.164899807319989e-18
2.77000e+01	+4.062353374960529e-01	+7.969376612360666e-01	-4.865701591545651e-18
2.78000e+01	+4.330878057860915e-01	+8.413119429704750e-01	-5.425731648560194e-18
2.79000e+01	+4.044200964562698e-01	+7.959184827194902e-01	-4.727745368091858e-18
2.80000e+01	+3.399410769887303e-01	+6.961131100786060e-01	-3.961820775650471e-18
2.81000e+01	+3.494260888878243e-01	+7.017501244091238e-01	-3.843765133548446e-18
2.82000e+01	+4.044434748488058e-01	+7.889007931107472e-01	-4.692065318586263e-18
2.83000e+01	+4.409483608981316e-01	+8.542276519308529e-01	-5.662438142606488e-18
2.84000e+01	+4.315807132812103e-01	+8.453165291764178e-01	-5.469512370654741e-18
2.85000e+01	+3.625362924814388e-01	+7.354110803108087e-01	-4.442788864809922e-18
2.86000e+01	+3.421487178770619e-01	+6.934602522466489e-01	-3.804636922605637e-18
2.87000e+01	+3.712153350280817e-01	+7.330488253160431e-01	-4.207135553811849e-18
2.88000e+01	+4.139766721343625e-01	+8.088944518820043e-01	-5.032692211123827e-18
2.89000e+01	+4.367610576728769e-01	+8.476712421077168e-01	-5.394731199621420e-18
2.90000e+01	+4.193620717727468e-01	+8.195950281184872e-01	-5.079470067862533e-18
2.91000e+01	+3.511315864391203e-01	+7.151055819209045e-01	-4.098951875235236e-18
2.92000e+01	+3.517067440923038e-01	+7.065367366243457e-01	-3.841677176855315e-18
2.93000e+01	+3.918921703994411e-01	+7.668819375087658e-01	-4.338449080261140e-18
2.94000e+01	+4.201054396054433e-01	+8.174250819866278e-01	-5.019723759174294e-18
2.95000e+01	+4.153526726461371e-01	+8.125843264256345e-01	-4.831692108691329e-18
2.96000e+01	+3.494279081797451e-01	+7.102822858761065e-01	-4.217968398288164e-18
2.97000e+01	+3.421323328422001e-01	+6.886679027319134e-01	-3.887643526346586e-18
2.98000e+01	+3.899711152907124e-01	+7.582719837024005e-01	-4.455640474767339e-18
2.99000e+01	+4.296693769889626e-01	+8.339787644277681e-01	-5.093756447856431e-18
3.00000e+01	+3.554873820934125e-01	+6.653149368072172e-01	-4.567686222123217e-18
