# Force_Array           
# Time                  	total_x                 	total_y                 	total_z                 
1.00000e-01	+1.304619112995865e-01	-2.958981046478039e-01	+2.911670852046178e-18
2.00000e-01	-2.959163065580939e-02	+2.676191478060539e-01	+1.253350465714477e-18
3.00000e-01	+1.956490038070680e-02	+1.268105113250407e-01	+3.159647377548028e-19
4.00000e-01	+7.322381893983009e-03	+1.627654769839019e-01	+6.271397466699205e-19
5.00000e-01	+1.147630575298238e-02	+1.587357127382076e-01	+4.514854060933648e-19
6.00000e-01	+1.478258064433809e-02	+1.555018897131224e-01	+4.339616649318116e-19
7.00000e-01	+1.509007972734179e-02	+1.572284584403330e-01	+4.040369285078757e-19
8.00000e-01	+1.666025619308635e-02	+1.606999260659479e-01	+3.861575964780860e-19
9.00000e-01	+1.652319332217621e-02	+1.613761787381811e-01	+3.741558735002136e-19
1.00000e+00	+1.784651676037506e-02	+1.599261967922680e-01	+3.368451272037722e-19
1.10000e+00	+1.787272929166074e-02	+1.638580170404689e-01	+3.461701460045148e-19
1.20000e+00	+1.797911614628571e-02	+1.602655246814928e-01	+3.432527090709490e-19
1.30000e+00	+1.775867876971977e-02	+1.585562292553475e-01	+3.569968125795076e-19
1.40000e+00	+1.815789196148758e-02	+1.571576549164126e-01	+3.661548585778070e-19
1.50000e+00	+1.818426987492982e-02	+1.614657457172194e-01	+3.649537119767792e-19
1.60000e+00	+1.844962704922582e-02	+1.568545836655835e-01	+3.661764732083380e-19
1.70000e+00	+1.885710827004320e-02	+1.597415256426063e-01	+3.630122232767329e-19
1.80000e+00	+1.883662279764987e-02	+1.538691912634649e-01	+3.719802616572199e-19
1.90000e+00	+1.922379844943236e-02	+1.538092024510444e-01	+3.768519106770913e-19
2.00000e+00	+1.922612584796298e-02	+1.530785775041937e-01	+3.836616950088539e-19
2.10000e+00	+1.934698211299439e-02	+1.545793500988051e-01	+3.802085009124311e-19
2.20000e+00	+1.944506402847336e-02	+1.580190936667314e-01	+3.717094667121398e-19
2.30000e+00	+1.954820748343883e-02	+1.555335166980554e-01	+3.664604270537100e-19
2.40000e+00	+1.983921139425631e-02	+1.578356597222063e-01	+3.602050125242356e-19
2.50000e+00	+1.951076229045083e-02	+1.553948046294256e-01	+3.671646400732555e-19
2.60000e+00	+2.030349943845992e-02	+1.536871673799233e-01	+3.559738625416160e-19
2.70000e+00	+1.954509137280674e-02	+1.562542298899930e-01	+3.686546758748153e-19
2.80000e+00	+2.033537119351085e-02	+1.532859011818667e-01	+3.570782211159632e-19
2.90000e+00	+2.003462050225347e-02	+1.528787059384872e-01	+3.686089010775194e-19
3.00000e+00	+1.971634965138628e-02	+1.486796008854485e-01	+3.726308004124054e-19
3.10000e+00	+2.054353091414666e-02	+1.506604305898698e-01	+3.636329470131364e-19
3.20000e+00	+1.989980230155078e-02	+1.497655949117935e-01	+3.758177171033436e-19
3.30000e+00	+2.038367224206791e-02	+1.477934029147869e-01	+3.649843434031245e-19
3.40000e+00	+1.983267044056101e-02	+1.474391343048859e-01	+3.736008826429363e-19
3.50000e+00	+2.059166793775940e-02	+1.457179470346158e-01	+3.624950929534083e-19
3.60000e+00	+2.003507397157059e-02	+1.461410489763699e-01	+3.747689731181643e-19
3.70000e+00	+2.024138407123525e-02	+1.442542822980165e-01	+3.713949168845826e-19
3.80000e+00	+1.999843174818005e-02	+1.438474650486668e-01	+3.772483264494510e-19
3.90000e+00	+2.041798236640796e-02	+1.439332537136592e-01	+3.699441668499881e-19
4.00000e+00	+1.984172189187438e-02	+1.428453799116622e-01	+3.801981402009062e-19
4.10000e+00	+2.062160588440207e-02	+1.439691208036592e-01	-5.525225031814217e-19
4.20000e+00	+1.978426475657668e-02	+1.411428613404270e-01	-5.461172037881727e-19
4.30000e+00	+2.028874723791968e-02	+1.377918029466060e-01	-5.455112801898589e-19
4.40000e+00	+1.989461332225322e-02	+1.394713978863192e-01	-5.449299841696950e-19
4.50000e+00	+2.037256324286023e-02	+1.389080802284623e-01	-5.496947979429151e-19
4.60000e+00	+1.979444112889459e-02	+1.367969743898531e-01	-5.403750023683375e-19
4.70000e+00	+2.041490224324886e-02	+1.389459112900930e-01	-5.511418445053431e-19
4.80000e+00	+1.985616049732353e-02	+1.372915667409053e-01	-5.424476488144521e-19
4.90000e+00	+2.031322134459205e-02	+1.366195496199864e-01	-5.466028539963529e-19
5.00000e+00	+1.978569750973628e-02	+1.347231425282171e-01	-5.380166483229811e-19
5.10000e+00	+2.038147460467987e-02	+1.355813761504207e-01	-5.463050034101392e-19
5.20000e+00	+1.983826136413816e-02	+1.354145717603062e-01	-5.408761421512559e-19
5.30000e+00	+2.034816130334392e-02	+1.350397783168586e-01	-5.459153751037773e-19
5.40000e+00	+1.984770607819873e-02	+1.347956724816378e-01	-5.409753461337307e-19
5.50000e+00	+2.032564091227022e-02	+1.346084193891971e-01	-5.459505254658112e-19
5.60000e+00	+1.984632026020014e-02	+1.342493173935775e-01	-5.409207594868793e-19
5.70000e+00	+2.033171486879447e-02	+1.345168242095958e-01	-5.462400625564281e-19
5.80000e+00	+1.984832167191642e-02	+1.341350711615510e-01	-5.410495329321749e-19
5.90000e+00	+2.032138029655627e-02	+1.343366702653959e-01	-5.458616578249910e-19
6.00000e+00	+1.987697064911216e-02	+1.350379075697955e-01	-5.424472373872873e-19
6.10000e+00	+2.020520496155045e-02	+1.327759942771606e-01	-5.420452289307347e-19
6.20000e+00	+1.988834255641757e-02	+1.347302106364384e-01	-5.423953024251221e-19
6.30000e+00	+2.019385788310827e-02	+1.329296274551152e-01	-5.425170215020151e-19
6.40000e+00	+1.981347078805373e-02	+1.332011711330510e-01	-5.394599247674002e-19
6.50000e+00	+2.011712938956734e-02	+1.308464657879406e-01	-5.382487554732578e-19
6.60000e+00	+1.989780763882488e-02	+1.326068138221363e-01	-5.391635280473815e-19
6.70000e+00	+2.020306237910913e-02	+1.324548815351720e-01	-5.423550141753805e-19
6.80000e+00	+1.986050371133704e-02	+1.323648837795760e-01	-5.386523505933913e-19
6.90000e+00	+2.022656586249125e-02	+1.324132801539611e-01	-5.426227276544797e-19
7.00000e+00	+1.985528883223541e-02	+1.323860193266962e-01	-5.386942033470156e-19
7.10000e+00	+2.022879944186724e-02	+1.323195739544166e-01	-5.426409867304268e-19
7.20000e+00	+1.985286702186443e-02	+1.323386166549340e-01	-5.385859901081136e-19
7.30000e+00	+2.023899906956251e-02	+1.325636262955062e-01	-5.431221692943056e-19
7.40000e+00	+1.980668391980534e-02	+1.326398371714679e-01	-5.384864353422822e-19
7.50000e+00	+2.012234778905250e-02	+1.304881971359172e-01	-5.384586357331965e-19
7.60000e+00	+1.987938700981853e-02	+1.323959798230157e-01	-5.389551751044939e-19
7.70000e+00	+2.017488416767822e-02	+1.316284770804343e-01	-5.411580019815437e-19
7.80000e+00	+1.988247192757396e-02	+1.325977465993832e-01	-5.391505434351607e-19
7.90000e+00	+2.013966936566841e-02	+1.319591580593209e-01	-5.412107181295310e-19
8.00000e+00	+1.977091527150975e-02	+1.300795586118406e-01	-5.338920772560558e-19
8.10000e+00	+2.019318530775124e-02	+1.318233963799158e-01	-5.418030335633615e-19
8.20000e+00	+1.965335000594982e-02	+1.220896417283426e-01	-1.535242188662648e-18
8.30000e+00	+2.060470843706946e-02	+1.433632756459611e-01	-1.555472923835470e-18
8.40000e+00	+2.010586932768254e-02	+1.424498026573313e-01	-1.543674428860708e-18
8.50000e+00	+2.027826704750741e-02	+1.423096428566696e-01	-1.539938848972376e-18
8.60000e+00	+2.024631071738580e-02	+1.423991923080875e-01	-1.540805001442707e-18
8.70000e+00	+2.009657607172006e-02	+1.408088741149439e-01	-1.537105233148142e-18
8.80000e+00	+2.067808731579283e-02	+1.424843540660708e-01	-1.544387075718276e-18
8.90000e+00	+2.001107508626401e-02	+1.429546989524109e-01	-1.536486544385972e-18
9.00000e+00	+2.068637147413099e-02	+1.425861619679101e-01	-1.543642555309818e-18
9.10000e+00	+2.039861594326600e-02	+1.442878299931352e-01	-1.543885701948090e-18
9.20000e+00	+2.013764360212545e-02	+1.429818777720285e-01	-1.537069009501311e-18
9.30000e+00	+2.070953846020954e-02	+1.430589739111372e-01	-1.545974685185629e-18
9.40000e+00	+1.996954256116674e-02	+1.437402382770701e-01	-1.536628423393079e-18
9.50000e+00	+2.066005363921571e-02	+1.428286406864334e-01	-1.543960522474406e-18
9.60000e+00	+2.037278536958041e-02	+1.450529360148342e-01	-1.544379613276191e-18
9.70000e+00	+2.005038590030806e-02	+1.434886762592440e-01	-1.537272223647988e-18
9.80000e+00	+2.051213968029519e-02	+1.423883065587460e-01	-1.543683236432517e-18
9.90000e+00	+1.989848834834056e-02	+1.424553275468753e-01	-1.537044799960160e-18
1.00000e+01	+2.063619115746154e-02	+1.423203737715400e-01	-1.544544023489857e-18
1.01000e+01	+2.039430661966523e-02	+1.447541780777569e-01	-1.545889104996240e-18
1.02000e+01	+2.000597765272111e-02	+1.431386220237596e-01	-1.537823454076043e-18
1.03000e+01	+2.057651732130996e-02	+1.410908332724168e-01	-1.545143752559301e-18
1.04000e+01	+1.993883733332062e-02	+1.433178244580568e-01	-1.537534318976106e-18
1.05000e+01	+2.062461400951937e-02	+1.420305980004872e-01	-1.544433659688450e-18
1.06000e+01	+2.037233344188993e-02	+1.436908319283497e-01	-1.545241617028610e-18
1.07000e+01	+2.006446430191840e-02	+1.420375980745924e-01	-1.538348938544882e-18
1.08000e+01	+2.065794071756737e-02	+1.419809410082636e-01	-1.547521098982303e-18
1.09000e+01	+1.992763324878856e-02	+1.425126421900311e-01	-1.538494842693651e-18
1.10000e+01	+2.060738483513583e-02	+1.411370702690419e-01	-1.545812998420653e-18
1.11000e+01	+2.021407029550342e-02	+1.420319302188206e-01	-1.544156428294520e-18
1.12000e+01	+2.009644250408017e-02	+1.411427750969104e-01	-1.540087773861978e-18
1.13000e+01	+2.058218158536428e-02	+1.422703024396442e-01	-1.548158913095904e-18
1.14000e+01	+1.976591623121679e-02	+1.411963758550143e-01	-1.536097703012720e-18
1.15000e+01	+2.059089032531264e-02	+1.408596723703490e-01	-1.545749445421328e-18
1.16000e+01	+2.024055016917107e-02	+1.422588312247066e-01	-1.544690178947999e-18
1.17000e+01	+2.008347494983858e-02	+1.408258251181293e-01	-1.540004210792765e-18
1.18000e+01	+2.053047935890843e-02	+1.405262175030496e-01	-1.547083953425844e-18
1.19000e+01	+1.992307585719567e-02	+1.407112942107315e-01	-1.539164888391948e-18
1.20000e+01	+2.059241996068386e-02	+1.398545445316410e-01	-1.547086383966036e-18
1.21000e+01	+2.016732666516301e-02	+1.413566681517471e-01	-1.544798613933930e-18
1.22000e+01	+2.013660703977984e-02	+1.398152476739681e-01	-1.542161061253869e-18
1.23000e+01	+2.029684784623487e-02	+1.381491186135523e-01	+1.148597588512190e-19
1.24000e+01	+2.009705741190095e-02	+1.439358077286445e-01	+1.164648778684633e-19
1.25000e+01	+2.060968439554272e-02	+1.419243332442569e-01	+1.277984735657217e-19
1.26000e+01	+1.975776354200035e-02	+1.433215559758360e-01	+1.195877875106654e-19
1.27000e+01	+2.068387672598049e-02	+1.425736664216892e-01	+1.307984040633570e-19
1.28000e+01	+2.037127664240567e-02	+1.443524782487790e-01	+1.256360978223307e-19
1.29000e+01	+2.009425040782731e-02	+1.427838039187107e-01	+1.226247636445286e-19
1.30000e+01	+2.075022020905835e-02	+1.427790355153439e-01	+1.294755045705640e-19
1.31000e+01	+1.994554617513583e-02	+1.436297866219512e-01	+1.210654674571847e-19
1.32000e+01	+2.069719289461860e-02	+1.424744138633121e-01	+1.299322293523571e-19
1.33000e+01	+2.046948409661331e-02	+1.449690276909809e-01	+1.253335356594431e-19
1.34000e+01	+2.006573613881470e-02	+1.433679123957727e-01	+1.223223627047548e-19
1.35000e+01	+2.070133909419690e-02	+1.436136444789043e-01	+1.292111736064486e-19
1.36000e+01	+1.987376403246108e-02	+1.429184389565635e-01	+1.216427696515761e-19
1.37000e+01	+2.072185129248297e-02	+1.431571552725368e-01	+1.315842366355873e-19
1.38000e+01	+2.021442252266933e-02	+1.447036496021892e-01	+1.252667800711254e-19
1.39000e+01	+2.037025703953795e-02	+1.428653094495818e-01	+1.248570452782754e-19
1.40000e+01	+2.005206968753321e-02	+1.428927432646905e-01	+1.214684476454370e-19
1.41000e+01	+2.068488740127498e-02	+1.426400606465174e-01	+1.296586231714101e-19
1.42000e+01	+1.987674730700472e-02	+1.437670364292651e-01	+1.212308094405998e-19
1.43000e+01	+2.058778163156026e-02	+1.426711167204562e-01	+1.297142553300369e-19
1.44000e+01	+2.034004944622088e-02	+1.430972257018348e-01	+1.241599236782502e-19
1.45000e+01	+2.002393852308159e-02	+1.428511140708425e-01	+1.209674959184207e-19
1.46000e+01	+2.052631032179342e-02	+1.420372170141977e-01	+1.267314465924834e-19
1.47000e+01	+1.986339332657153e-02	+1.418705810903705e-01	+1.185433021394144e-19
1.48000e+01	+2.062769903868767e-02	+1.417139704206017e-01	+1.281467400624071e-19
1.49000e+01	+2.033456743009067e-02	+1.434715655504424e-01	+1.227938628172536e-19
1.50000e+01	+2.003072712175576e-02	+1.420745889736940e-01	+1.201999882605395e-19
1.51000e+01	+2.067935532814784e-02	+1.434400426974477e-01	+1.273576236032416e-19
1.52000e+01	+1.991122101903038e-02	+1.427710147056433e-01	+1.202689625700253e-19
1.53000e+01	+2.067670055560958e-02	+1.426783370983093e-01	+1.272448851608177e-19
1.54000e+01	+1.997878154986312e-02	+1.437424223335784e-01	+1.194399494066685e-19
1.55000e+01	+2.067169492142932e-02	+1.426084754137284e-01	+1.293486074240978e-19
1.56000e+01	+2.035804156510376e-02	+1.444240896089223e-01	+1.245922019642401e-19
1.57000e+01	+2.012063578212168e-02	+1.430095107640938e-01	+1.218753113022255e-19
1.58000e+01	+2.071319465097540e-02	+1.429970602408851e-01	+1.287858413539708e-19
1.59000e+01	+1.990450739524357e-02	+1.433818728961940e-01	+1.204145832873443e-19
1.60000e+01	+2.060354344966549e-02	+1.427971471742615e-01	+1.294382425430294e-19
1.61000e+01	+2.028823963942290e-02	+1.430386681762311e-01	+1.244162960420237e-19
1.62000e+01	+2.006540348177610e-02	+1.426346542203449e-01	+1.218900256940083e-19
1.63000e+01	+2.073098574142767e-02	+1.425958699169192e-01	+1.286050655996864e-19
1.64000e+01	+1.988431418180432e-02	+1.434831870024792e-01	+5.800309308709890e-19
1.65000e+01	+2.066855383847366e-02	+1.436676220183211e-01	+5.669952842657029e-19
1.66000e+01	+2.060843112355479e-02	+1.476653948338189e-01	+5.646911690545932e-19
1.67000e+01	+2.009950730258942e-02	+1.462486143575419e-01	+5.610802715980402e-19
1.68000e+01	+2.071261059234960e-02	+1.453332241404596e-01	+5.658883014457232e-19
1.69000e+01	+2.025009799387355e-02	+1.450420793304637e-01	+5.592840020958531e-19
1.70000e+01	+2.058199276429666e-02	+1.463585197396294e-01	+5.662098262068512e-19
1.71000e+01	+1.987733905931148e-02	+1.450590343862516e-01	+5.573497070929336e-19
1.72000e+01	+2.075640682036029e-02	+1.448383714444825e-01	+5.660886791630193e-19
1.73000e+01	+2.041243705135130e-02	+1.477730528005918e-01	+5.627403626342199e-19
1.74000e+01	+2.019034486425376e-02	+1.466432347241894e-01	+5.617341624387828e-19
1.75000e+01	+2.077786236543195e-02	+1.466745176824506e-01	+5.673713819184738e-19
1.76000e+01	+1.980579255874383e-02	+1.445909070336222e-01	+5.551747822640319e-19
1.77000e+01	+2.075992944365246e-02	+1.463067229937896e-01	+5.677057300490286e-19
1.78000e+01	+2.049318752695505e-02	+1.475604848198024e-01	+5.633798174931579e-19
1.79000e+01	+2.002864518587431e-02	+1.459397047147949e-01	+5.596831836435055e-19
1.80000e+01	+2.057534828809076e-02	+1.455003984477649e-01	+5.649232963164621e-19
1.81000e+01	+2.038499690947835e-02	+1.472808421154918e-01	+5.628191232072395e-19
1.82000e+01	+2.009002180140765e-02	+1.471833363019911e-01	+5.617805882943139e-19
1.83000e+01	+2.072896401783463e-02	+1.465223619589734e-01	+5.667124951142866e-19
1.84000e+01	+2.015477234103940e-02	+1.473948930559561e-01	+5.603115149796554e-19
1.85000e+01	+2.076235195200827e-02	+1.466568498817673e-01	+5.678088226419739e-19
1.86000e+01	+2.004151859296826e-02	+1.479161797495564e-01	+5.598299816023330e-19
1.87000e+01	+2.074686130988777e-02	+1.460209331351769e-01	+5.670125403281571e-19
1.88000e+01	+2.050522054730959e-02	+1.486917669196572e-01	+5.638966367492845e-19
1.89000e+01	+2.012247499757360e-02	+1.465467857675237e-01	+5.608772474608920e-19
1.90000e+01	+2.081230191077460e-02	+1.463882111178960e-01	+5.669161128571303e-19
1.91000e+01	+2.017066115914423e-02	+1.475097339547125e-01	+5.605375945013425e-19
1.92000e+01	+2.075700354191626e-02	+1.457973968569737e-01	+5.669803164803529e-19
1.93000e+01	+2.005304751800703e-02	+1.471206600169485e-01	+5.597410064607275e-19
1.94000e+01	+2.074453927862361e-02	+1.455350192145917e-01	+5.666821072272605e-19
1.95000e+01	+2.044318022120744e-02	+1.474867304676334e-01	+5.628110655169901e-19
1.96000e+01	+2.012020742900273e-02	+1.456659147276084e-01	+5.609084608211088e-19
1.97000e+01	+2.076986725907770e-02	+1.454477429748841e-01	+5.668211395532728e-19
1.98000e+01	+1.994944308826702e-02	+1.456848899262806e-01	+5.582299270106862e-19
1.99000e+01	+2.062097062765432e-02	+1.450551549411618e-01	+5.662638077716859e-19
2.00000e+01	+2.019054190027092e-02	+1.447688200325661e-01	+5.604855179568030e-19
2.01000e+01	+2.014014588139366e-02	+1.452680694226280e-01	+5.621304597560787e-19
2.02000e+01	+2.063768680986368e-02	+1.451426833449434e-01	+5.667763937190582e-19
2.03000e+01	+1.997463824035104e-02	+1.466942653042311e-01	+5.598278442985139e-19
2.04000e+01	+2.081615002376195e-02	+1.464613059850088e-01	+5.693424585442427e-19
2.05000e+01	+2.053288426272055e-02	+1.492758338390334e-01	-7.993851976600756e-19
2.06000e+01	+1.999800976804519e-02	+1.467686027506837e-01	-7.683706540549675e-19
2.07000e+01	+2.074834091171737e-02	+1.461023918386715e-01	-7.718911090210644e-19
2.08000e+01	+1.997794054413218e-02	+1.473519804458070e-01	-7.745647525023802e-19
2.09000e+01	+2.062582130809857e-02	+1.451874077299159e-01	-7.684847724915211e-19
2.10000e+01	+2.004655114670276e-02	+1.482299775346892e-01	-7.710552073237583e-19
2.11000e+01	+2.078497368635339e-02	+1.469447631506312e-01	-7.673850239978218e-19
2.12000e+01	+2.053081541500651e-02	+1.496020993310515e-01	-7.761368170685354e-19
2.13000e+01	+2.018747350862840e-02	+1.481376134560149e-01	-7.677176281763043e-19
2.14000e+01	+2.085556997595351e-02	+1.482974936492873e-01	-7.713954328436436e-19
2.15000e+01	+2.015031167107938e-02	+1.498303944379638e-01	-7.736882173204476e-19
2.16000e+01	+2.082353076814923e-02	+1.488723538180378e-01	-7.692405168221028e-19
2.17000e+01	+2.007192498362091e-02	+1.490293854415505e-01	-7.728007110109311e-19
2.18000e+01	+2.080333698971078e-02	+1.482441427962869e-01	-7.680121901552754e-19
2.19000e+01	+2.043679869153702e-02	+1.498901682016753e-01	-7.756829584969829e-19
2.20000e+01	+2.026190273597739e-02	+1.481455935370257e-01	-7.681824124173750e-19
2.21000e+01	+2.076493284912420e-02	+1.481001065453643e-01	-7.713386486623126e-19
2.22000e+01	+2.001622204747123e-02	+1.487212737798847e-01	-7.714703943896185e-19
2.23000e+01	+2.074523395448884e-02	+1.475002790668204e-01	-7.683946258325048e-19
2.24000e+01	+2.048641029076126e-02	+1.499870359630873e-01	-7.774182934934068e-19
2.25000e+01	+2.002224617108345e-02	+1.465945416505455e-01	-7.679130371578736e-19
2.26000e+01	+2.078984419881490e-02	+1.477227165047497e-01	-7.711500641148225e-19
2.27000e+01	+2.018045214104960e-02	+1.487854663404001e-01	-7.740029740848924e-19
2.28000e+01	+2.073193821953660e-02	+1.472246944306500e-01	-7.689085881974800e-19
2.29000e+01	+2.004352498268652e-02	+1.484469839254173e-01	-7.720415334633449e-19
2.30000e+01	+2.075344880401630e-02	+1.476236573567145e-01	-7.689214858750243e-19
2.31000e+01	+2.036869682475429e-02	+1.486381153924789e-01	-7.767139234496565e-19
2.32000e+01	+2.009969247604673e-02	+1.478374545737713e-01	-7.679168411180753e-19
2.33000e+01	+2.068729808863302e-02	+1.464128539277423e-01	-7.729369353273936e-19
2.34000e+01	+1.996980773225586e-02	+1.478538691630338e-01	-7.748970445845338e-19
2.35000e+01	+2.078535036149163e-02	+1.472426694252690e-01	-7.691550206401497e-19
2.36000e+01	+1.988946126979325e-02	+1.465467526371513e-01	-7.744051512739672e-19
2.37000e+01	+2.074308135184021e-02	+1.485350064231408e-01	-7.680525680493267e-19
2.38000e+01	+2.037606324139390e-02	+1.484171699223447e-01	-7.779612220549434e-19
2.39000e+01	+2.012209782651144e-02	+1.484942983688437e-01	-7.683751206992348e-19
2.40000e+01	+2.057881780169349e-02	+1.471974757264466e-01	-7.717701651834664e-19
2.41000e+01	+2.021692215133492e-02	+1.476771482724206e-01	-7.763223511132603e-19
2.42000e+01	+2.052206379703926e-02	+1.474481505138505e-01	-7.693218839020849e-19
2.43000e+01	+1.987596338797884e-02	+1.466594913033042e-01	-7.719184113917551e-19
2.44000e+01	+2.076442416480093e-02	+1.474381869558086e-01	-7.685573113242704e-19
2.45000e+01	+2.045171943085888e-02	+1.493444885800069e-01	-7.764047764250318e-19
2.46000e+01	+2.022326000191242e-02	+1.495153620370036e-01	+3.364085844643904e-19
2.47000e+01	+2.074046704628375e-02	+1.452569105424663e-01	+3.378071181091086e-19
2.48000e+01	+1.989022123809639e-02	+1.467206965865880e-01	+3.283399784327970e-19
2.49000e+01	+2.066617552552715e-02	+1.454658835715639e-01	+3.378649259156882e-19
2.50000e+01	+2.044335089497689e-02	+1.480050581393332e-01	+3.368408847747996e-19
2.51000e+01	+1.993130205731383e-02	+1.444864448477380e-01	+3.300539493617131e-19
2.52000e+01	+2.079788587795045e-02	+1.463367741978077e-01	+3.398114474093144e-19
2.53000e+01	+2.016201336745892e-02	+1.480604018135245e-01	+3.336196412509452e-19
2.54000e+01	+2.051133009027831e-02	+1.457789815338472e-01	+3.398291674526851e-19
2.55000e+01	+1.995708414446826e-02	+1.470999156207356e-01	+3.323025731420039e-19
2.56000e+01	+2.063085317789513e-02	+1.447263953096173e-01	+3.373197605275921e-19
2.57000e+01	+2.040508180896835e-02	+1.485207240918665e-01	+3.360824462655460e-19
2.58000e+01	+2.001722764845297e-02	+1.446870922888046e-01	+3.295165433093897e-19
2.59000e+01	+2.063737909192663e-02	+1.450503611234955e-01	+3.417153886808593e-19
2.60000e+01	+1.988478705330952e-02	+1.456949855524852e-01	+3.298007351462839e-19
2.61000e+01	+2.068994206657302e-02	+1.455506220280107e-01	+3.393236409347912e-19
2.62000e+01	+2.038239378643650e-02	+1.468334968041970e-01	+3.381822003046816e-19
2.63000e+01	+2.002391343287972e-02	+1.464906272864274e-01	+3.385388132602588e-19
2.64000e+01	+2.064156269686151e-02	+1.470182177721943e-01	+3.449419652265487e-19
2.65000e+01	+2.020776240397938e-02	+1.465068932246394e-01	+3.352786773743225e-19
2.66000e+01	+2.054922327979417e-02	+1.467619167535369e-01	+3.406159104781492e-19
2.67000e+01	+2.004440350586812e-02	+1.466107463953687e-01	+3.322859019077989e-19
2.68000e+01	+2.074607951626745e-02	+1.464788372427977e-01	+3.421074802090464e-19
2.69000e+01	+2.034885615065782e-02	+1.476425820618729e-01	+3.348966778543132e-19
2.70000e+01	+2.023115666900160e-02	+1.464898943143656e-01	+3.339288411225583e-19
2.71000e+01	+2.067738920984405e-02	+1.461720228107020e-01	+3.394148551862649e-19
2.72000e+01	+1.998901734573594e-02	+1.466855433117499e-01	+3.299212484869898e-19
2.73000e+01	+2.068630386412562e-02	+1.456204833467284e-01	+3.380909479042835e-19
2.74000e+01	+2.042446011766436e-02	+1.481829587005880e-01	+3.366318816374181e-19
2.75000e+01	+1.998806421617976e-02	+1.442577096233863e-01	+3.292038954858369e-19
2.76000e+01	+2.064842245762456e-02	+1.449018659022942e-01	+3.422206593696986e-19
2.77000e+01	+1.989292738400905e-02	+1.454218001278155e-01	+3.309882364217581e-19
2.78000e+01	+2.069726402728473e-02	+1.450907783993427e-01	+3.393205494564091e-19
2.79000e+01	+2.036091058837307e-02	+1.469426386496404e-01	+3.371122785211356e-19
2.80000e+01	+1.996008744860897e-02	+1.447306057596341e-01	+3.341187699638367e-19
2.81000e+01	+2.079493908417455e-02	+1.453470532077172e-01	+3.413638204837473e-19
2.82000e+01	+1.981260805757415e-02	+1.463900658597197e-01	+3.317411686823581e-19
2.83000e+01	+2.070596720627628e-02	+1.449654800920120e-01	+3.411402956432793e-19
2.84000e+01	+2.046817281783904e-02	+1.477902815259438e-01	+3.383558488190406e-19
2.85000e+01	+2.011464420843003e-02	+1.461479752480667e-01	+3.332496164959007e-19
2.86000e+01	+2.078830408940413e-02	+1.461271015010586e-01	+3.416421661118983e-19
2.87000e+01	+2.005537123321940e-02	+1.470442018036628e-01	+7.111933849615502e-19
2.88000e+01	+2.075004039371224e-02	+1.464072439700898e-01	+7.105633586634953e-19
2.89000e+01	+2.013330158402650e-02	+1.467572061852327e-01	+7.130638233973293e-19
2.90000e+01	+2.062890757066981e-02	+1.454454194554983e-01	+7.100781895470953e-19
2.91000e+01	+1.993714673107765e-02	+1.474528660965372e-01	+7.117170195286234e-19
2.92000e+01	+2.055915745369297e-02	+1.445745972759311e-01	+7.101915306986324e-19
2.93000e+01	+2.039100775178926e-02	+1.473987722955925e-01	+7.128980446895189e-19
2.94000e+01	+2.010993250376683e-02	+1.458801444700569e-01	+7.092449608460173e-19
2.95000e+01	+2.079141925994516e-02	+1.458694974412542e-01	+7.114197206192456e-19
2.96000e+01	+1.998141567635409e-02	+1.467540617792966e-01	+7.114685321423596e-19
2.97000e+01	+2.071901909565688e-02	+1.453590780577056e-01	+7.103107329365865e-19
2.98000e+01	+2.045532407405829e-02	+1.477463013885362e-01	+7.136085431639866e-19
2.99000e+01	+2.011942753904638e-02	+1.462154017437056e-01	+7.097633504272400e-19
3.00000e+01	+2.075374370813053e-02	+1.463076157322507e-01	+7.114942014532560e-19
3.01000e+01	+1.983238544760554e-02	+1.447535256423854e-01	+7.119581267567462e-19
3.02000e+01	+2.072609508058105e-02	+1.464439613863620e-01	+7.104358250116374e-19
3.03000e+01	+2.038505155211988e-02	+1.471645949323730e-01	+7.140593396649507e-19
3.04000e+01	+2.003778372054320e-02	+1.459298974198722e-01	+7.093911691814793e-19
3.05000e+01	+2.050859373732270e-02	+1.449866700667807e-01	+7.115544776826438e-19
3.06000e+01	+2.028955509762776e-02	+1.465775801413064e-01	+7.125096247395857e-19
3.07000e+01	+2.009921622950902e-02	+1.450588602490033e-01	+7.097649293845284e-19
3.08000e+01	+2.051494079803700e-02	+1.452279722179204e-01	+7.107171681077173e-19
3.09000e+01	+2.002002883078544e-02	+1.459370625935916e-01	+7.104245158100606e-19
3.10000e+01	+2.070027663939096e-02	+1.454623577233567e-01	+7.108533612160029e-19
3.11000e+01	+2.036882468452673e-02	+1.476355781822454e-01	+7.131257162798750e-19
3.12000e+01	+2.017553091659213e-02	+1.461569419343979e-01	+7.098390427901842e-19
3.13000e+01	+2.069427242977957e-02	+1.465377164392111e-01	+7.111064402796767e-19
3.14000e+01	+1.989317125771006e-02	+1.457560574830448e-01	+7.112665270451442e-19
3.15000e+01	+2.051871441712640e-02	+1.445321471675734e-01	+7.103627788758147e-19
3.16000e+01	+2.042815009595557e-02	+1.476505079218686e-01	+7.133214080036216e-19
3.17000e+01	+2.002476732778968e-02	+1.451881027378543e-01	+7.098394276273145e-19
3.18000e+01	+2.065689787913937e-02	+1.449150531182649e-01	+7.114392289165458e-19
3.19000e+01	+1.993174572140958e-02	+1.467746422673305e-01	+7.113470204043574e-19
3.20000e+01	+2.054334573481371e-02	+1.447009008621943e-01	+7.102224089703882e-19
3.21000e+01	+2.045850473213542e-02	+1.465923124467329e-01	+7.138053512143113e-19
3.22000e+01	+2.005514858430929e-02	+1.464668639757150e-01	+7.095257108712982e-19
3.23000e+01	+2.061397184990185e-02	+1.451609659456742e-01	+7.116532947212273e-19
3.24000e+01	+2.026106934228369e-02	+1.459631014780516e-01	+7.127179393983192e-19
3.25000e+01	+2.030719235083539e-02	+1.455733400204435e-01	+7.096270458624361e-19
3.26000e+01	+2.007281860605805e-02	+1.445307375887820e-01	+7.112863967699138e-19
3.27000e+01	+2.077218733530869e-02	+1.460248224403934e-01	+7.105084579614192e-19
3.28000e+01	+1.974139578394073e-02	+1.458079098602644e-01	-7.906294627608254e-19
3.29000e+01	+2.067791693800397e-02	+1.459519937309730e-01	-8.156718361688037e-19
3.30000e+01	+2.040553446634323e-02	+1.465150040440489e-01	-8.127617544175671e-19
3.31000e+01	+2.007300585308708e-02	+1.469962488777704e-01	-8.146432237069758e-19
3.32000e+01	+2.059009656175738e-02	+1.455126280402524e-01	-8.132624779894501e-19
3.33000e+01	+2.006984940222387e-02	+1.460558097156459e-01	-8.124224320845057e-19
3.34000e+01	+2.063894771259081e-02	+1.452257051649839e-01	-8.166740634165781e-19
3.35000e+01	+1.994237716883687e-02	+1.462467616104832e-01	-8.097008182230625e-19
3.36000e+01	+2.073230542827807e-02	+1.456670943326689e-01	-8.172907388331739e-19
3.37000e+01	+2.047160266759440e-02	+1.478915992996869e-01	-8.123265601690011e-19
3.38000e+01	+2.011336203834652e-02	+1.463449950685573e-01	-8.143419855687966e-19
3.39000e+01	+2.079253333910403e-02	+1.464594318945248e-01	-8.152418270256305e-19
3.40000e+01	+2.002436077775698e-02	+1.470847814983273e-01	-8.115372801813925e-19
3.41000e+01	+2.062218162759159e-02	+1.455082265636055e-01	-8.164162190146235e-19
3.42000e+01	+2.002120996259154e-02	+1.465757800500384e-01	-8.098505006931064e-19
3.43000e+01	+2.076492332995230e-02	+1.452987447246280e-01	-8.175814719259889e-19
3.44000e+01	+1.993987227817371e-02	+1.474792597654059e-01	-8.101830066906431e-19
3.45000e+01	+2.054914100673418e-02	+1.441720258345814e-01	-8.148380948495832e-19
3.46000e+01	+2.044262015241073e-02	+1.471917392868323e-01	-8.130516537517062e-19
3.47000e+01	+2.012155593023672e-02	+1.465155173233831e-01	-8.142221914536392e-19
3.48000e+01	+2.080989624345610e-02	+1.464403127311401e-01	-8.149363989382855e-19
3.49000e+01	+1.991651766008930e-02	+1.479483616748490e-01	-8.106073802353817e-19
3.50000e+01	+2.060121353334136e-02	+1.446993636427177e-01	-8.159718059184765e-19
3.51000e+01	+2.049853891338040e-02	+1.478147185638481e-01	-8.120349127964275e-19
3.52000e+01	+2.010089840538225e-02	+1.466046250823112e-01	-8.146594275141282e-19
3.53000e+01	+2.078197442992158e-02	+1.463560085716707e-01	-8.149055555475782e-19
3.54000e+01	+2.014715844652177e-02	+1.475580777479720e-01	-8.120477317384237e-19
3.55000e+01	+2.074612977023028e-02	+1.462257792557221e-01	-8.174318976162125e-19
3.56000e+01	+1.997918023532099e-02	+1.474483428799481e-01	-8.103333403084983e-19
3.57000e+01	+2.053420846350067e-02	+1.450003419485539e-01	-8.154564044494930e-19
3.58000e+01	+2.038631398249631e-02	+1.468668089861230e-01	-8.130486327132615e-19
3.59000e+01	+1.998990933830036e-02	+1.455448010288083e-01	-8.134718520517856e-19
3.60000e+01	+2.074062659331419e-02	+1.451780504489152e-01	-8.142206217703460e-19
3.61000e+01	+1.993752072334302e-02	+1.468365488118319e-01	-8.111696709655327e-19
3.62000e+01	+2.071777285312014e-02	+1.453975804089621e-01	-8.169002292747404e-19
3.63000e+01	+2.052256742740524e-02	+1.480199752371439e-01	-8.120355602526679e-19
3.64000e+01	+2.008351434424930e-02	+1.463551637458018e-01	-8.147670082238020e-19
3.65000e+01	+2.075390800285536e-02	+1.469000874404413e-01	-8.148459759327647e-19
3.66000e+01	+2.018054972397980e-02	+1.472523462638239e-01	-8.113109011241260e-19
3.67000e+01	+2.047040702136547e-02	+1.450908269624826e-01	-8.162218807408150e-19
3.68000e+01	+2.006107195971474e-02	+1.476603636432502e-01	-8.100813025357138e-19