# Force_Cycle           
# Time                  	total_x                 	total_y                 	total_z                 
2.99500e+02	+1.991920215845795e-02	+1.447934921793184e-01	-4.083431512680116e-19
2.99600e+02	+2.072365366695347e-02	+1.469306143866848e-01	-4.128613227728766e-19
2.99700e+02	+2.032301979164596e-02	+1.470472995029935e-01	-4.086080194539848e-19
2.99800e+02	+2.014355199823347e-02	+1.467204254735078e-01	-4.104044850052070e-19
2.99900e+02	+2.060005666191116e-02	+1.461536952064753e-01	-4.141792658947284e-19
3.00000e+02	+2.007064414639335e-02	+1.462774970045513e-01	-4.084398999827834e-19
