# Moment                
# CofR                  : (4.9746127460000000e-01 -1.6718957440000001e-02 1.2500000000000000e-01)
#
# Time                  	(total_x total_y total_z)	(pressure_x pressure_y pressure_z)	(viscous_x viscous_y viscous_z)
0.1                     	(-1.2017640975518097e-01 -5.2985956528666292e-02 1.0008254570112340e-01)	(-1.2015077951006758e-01 -5.2696073156799986e-02 1.0006480338060020e-01)	(-2.5630245113389970e-05 -2.8988337186630853e-04 1.7742320523209811e-05)
0.2                     	(1.0869116043630458e-01 1.2018380230077423e-02 -1.0230688519610524e-01)	(1.0868628311204563e-01 1.2262505082718294e-02 -1.0229344425009834e-01)	(4.8773242589542449e-06 -2.4412485264087066e-04 -1.3440946006906347e-05)
0.3                     	(5.1502972580379849e-02 -7.9461120163974060e-03 -6.6159862674900871e-02)	(5.1502396015249328e-02 -7.7130938075350326e-03 -6.6149966420446835e-02)	(5.7656513052315640e-07 -2.3301820886237307e-04 -9.8962544540429172e-06)
0.4                     	(6.6105765291390395e-02 -2.9739209310672273e-03 -7.7475349955634307e-02)	(6.6104467685306437e-02 -2.7569666745779165e-03 -7.7464709625290062e-02)	(1.2976060839522321e-06 -2.1695425648931080e-04 -1.0640330344238463e-05)
0.5                     	(6.4469112025957204e-02 -4.6610005301917909e-03 -7.4988928243654718e-02)	(6.4467704284542210e-02 -4.4540549679120056e-03 -7.4978625243409730e-02)	(1.4077414149870951e-06 -2.0694556227978495e-04 -1.0303000244982148e-05)
0.6                     	(6.3155723278837742e-02 -6.0038149648424218e-03 -7.4321043144231935e-02)	(6.3155290467488218e-02 -5.8053698355671115e-03 -7.4312147036255730e-02)	(4.3281134952029030e-07 -1.9844512927531067e-04 -8.8961079762059378e-06)
0.7                     	(6.3856953964579105e-02 -6.1287030098076990e-03 -7.4496839450114746e-02)	(6.3856328470147591e-02 -5.9394285248334823e-03 -7.4487868661429035e-02)	(6.2549443151958950e-07 -1.8927448497421651e-04 -8.9707886857099806e-06)
0.8                     	(6.5266859973690972e-02 -6.7664163556226745e-03 -7.6090663658187979e-02)	(6.5266480659566306e-02 -6.5841523077682920e-03 -7.6082064163864593e-02)	(3.7931412466315385e-07 -1.8226404785438226e-04 -8.5994943233834453e-06)
0.9                     	(6.5541514041965759e-02 -6.7107494774710716e-03 -7.6672108825956611e-02)	(6.5541073004854275e-02 -6.5349072206128131e-03 -7.6663422799619574e-02)	(4.4103711148946364e-07 -1.7584225685825889e-04 -8.6860263370444020e-06)
1                       	(6.4952616642041369e-02 -7.2482056397432564e-03 -7.6141365597013511e-02)	(6.4952865445690303e-02 -7.0776597903691642e-03 -7.6133423432028946e-02)	(-2.4880364893853088e-07 -1.7054584937409192e-04 -7.9421649845577127e-06)
1.1                     	(6.6549490815311002e-02 -7.2588516285178664e-03 -7.7977617823196038e-02)	(6.6550030217114572e-02 -7.0934770540825014e-03 -7.7969945600931512e-02)	(-5.3940180357371506e-07 -1.6537457443536465e-04 -7.6722222645246906e-06)
1.2                     	(6.5090431676393709e-02 -7.3020597127642735e-03 -7.6478316340219732e-02)	(6.5091521945133735e-02 -7.1399881419589029e-03 -7.6471268163299189e-02)	(-1.0902687400234595e-06 -1.6207157080537081e-04 -7.0481769205422043e-06)
1.3                     	(6.4396216389784891e-02 -7.2125310132713297e-03 -7.6155830495848092e-02)	(6.4397972524950525e-02 -7.0516030324740842e-03 -7.6149362000081294e-02)	(-1.7561351656346022e-06 -1.6092798079724556e-04 -6.4684957667940232e-06)
1.4                     	(6.3828197736779349e-02 -7.3746679359483602e-03 -7.5517439843816508e-02)	(6.3830225238014182e-02 -7.2138411331117312e-03 -7.5511185054647906e-02)	(-2.0275012348269978e-06 -1.6082680283662903e-04 -6.2547891686048860e-06)
1.5                     	(6.5577890881845416e-02 -7.3853810932296314e-03 -7.6786082439816453e-02)	(6.5580039912825544e-02 -7.2247366167230310e-03 -7.6780015025589912e-02)	(-2.1490309801250452e-06 -1.6064447650660060e-04 -6.0674142265451354e-06)
1.6                     	(6.3705108016863812e-02 -7.4931535730419973e-03 -7.4856704492179196e-02)	(6.3707009078761825e-02 -7.3332479209978919e-03 -7.4850547640507886e-02)	(-1.9010618980199810e-06 -1.5990565204410519e-04 -6.1568516713035292e-06)
1.7                     	(6.4877614080676146e-02 -7.6586484829157123e-03 -7.5364237516903645e-02)	(6.4879374061216438e-02 -7.5001501766658813e-03 -7.5358114656410569e-02)	(-1.7599805402885894e-06 -1.5849830624983091e-04 -6.1228604930793230e-06)
1.8                     	(6.2492617179776340e-02 -7.6503284886822245e-03 -7.3098722024326990e-02)	(6.2494274389994400e-02 -7.4930093525598885e-03 -7.3092598376962914e-02)	(-1.6572102180602219e-06 -1.5731913612233617e-04 -6.1236473640700500e-06)
1.9                     	(6.2468253251826332e-02 -7.8075764704873957e-03 -7.2772117086559632e-02)	(6.2469652513465874e-02 -7.6515411185299233e-03 -7.2765889377893939e-02)	(-1.3992616395450502e-06 -1.5603535195747215e-04 -6.2277086656943892e-06)
2                       	(6.2171516362975417e-02 -7.8085217229073535e-03 -7.2478533212901791e-02)	(6.2172800497379638e-02 -7.6536318877269372e-03 -7.2472274569041331e-02)	(-1.2841344042231330e-06 -1.5488983518041597e-04 -6.2586438604646035e-06)
2.1                     	(6.2781041937645901e-02 -7.8576064307840209e-03 -7.2819849100529827e-02)	(6.2782222576399399e-02 -7.7034781905760408e-03 -7.2813544952998022e-02)	(-1.1806387534974782e-06 -1.5412824020798050e-04 -6.3041475318024782e-06)
2.2                     	(6.4178063500064830e-02 -7.8974415371230837e-03 -7.4127819775675494e-02)	(6.4179198208626997e-02 -7.7435378282584063e-03 -7.4121456049704576e-02)	(-1.1347085621722355e-06 -1.5390370886467675e-04 -6.3637259709160387e-06)
2.3                     	(6.3168568300285860e-02 -7.9393323431566302e-03 -7.3344260004149939e-02)	(6.3169597284216061e-02 -7.7855220156540566e-03 -7.3337753449223941e-02)	(-1.0289839302050224e-06 -1.5381032750257394e-04 -6.5065549260030170e-06)
2.4                     	(6.4103563418671905e-02 -8.0575210191820724e-03 -7.4215833725992220e-02)	(6.4104705698307243e-02 -7.9035276960534966e-03 -7.4209438860058402e-02)	(-1.1422796353415821e-06 -1.5399332312857663e-04 -6.3948659338212098e-06)
2.5                     	(6.3112231615001860e-02 -7.9241243077376664e-03 -7.3298731803246031e-02)	(6.3113134321918646e-02 -7.7703475554572483e-03 -7.3292002637184078e-02)	(-9.0270691678429824e-07 -1.5377675228041895e-04 -6.7291660619482342e-06)
2.6                     	(6.2418689782235984e-02 -8.2460875201776050e-03 -7.2784511941050484e-02)	(6.2419995063433875e-02 -8.0919295902034550e-03 -7.2778270304095949e-02)	(-1.3052811978893705e-06 -1.5415792997414948e-04 -6.2416369545320533e-06)
2.7                     	(6.3461279617153948e-02 -7.9380667622614490e-03 -7.3750276585038382e-02)	(6.3462148645994837e-02 -7.7845884759531999e-03 -7.3743466480455794e-02)	(-8.6902884088283287e-07 -1.5347828630824997e-04 -6.8101045825847434e-06)
2.8                     	(6.2255719049131956e-02 -8.2590319528537647e-03 -7.2581594236749994e-02)	(6.2257045864516178e-02 -8.1054285881384802e-03 -7.2575369233926365e-02)	(-1.3268153842220688e-06 -1.5360336471528387e-04 -6.2250028236287080e-06)
2.9                     	(6.2090340286476503e-02 -8.1368847077751879e-03 -7.2612173711353256e-02)	(6.2091670237988887e-02 -7.9833916387284081e-03 -7.2605963726836878e-02)	(-1.3299515123837206e-06 -1.5349306904677924e-04 -6.2099845163765138e-06)
3                       	(6.0384910743223205e-02 -8.0076218041399295e-03 -7.0907783154169707e-02)	(6.0386026076798952e-02 -7.8546257715841894e-03 -7.0901288499975179e-02)	(-1.1153335757455555e-06 -1.5299603255573987e-04 -6.4946541945326629e-06)
3.1                     	(6.1189407286035127e-02 -8.3435741904981341e-03 -7.1705267137060782e-02)	(6.1190787728414429e-02 -8.1902865145187295e-03 -7.1699137564861792e-02)	(-1.3804423793044864e-06 -1.5328767597940445e-04 -6.1295721989914596e-06)
3.2                     	(6.0825977654608274e-02 -8.0821294826635363e-03 -7.1370736433351872e-02)	(6.0827210288623992e-02 -7.9291233618092698e-03 -7.1364428141326389e-02)	(-1.2326340157176937e-06 -1.5300612085426628e-04 -6.3082920254775805e-06)
3.3                     	(6.0024989240605904e-02 -8.2786489984239195e-03 -7.0421326943907445e-02)	(6.0026495637866321e-02 -8.1254412363656117e-03 -7.0415372532720177e-02)	(-1.5063972604200219e-06 -1.5320776205830772e-04 -5.9544111872649580e-06)
3.4                     	(5.9881106164107148e-02 -8.0548644684332558e-03 -7.0144728946887946e-02)	(5.9882244170723714e-02 -7.9022396076771830e-03 -7.0138321893773670e-02)	(-1.1380066165633949e-06 -1.5262486075607354e-04 -6.4070531142787662e-06)
3.5                     	(5.9182061109717299e-02 -8.3631246187814267e-03 -6.9389895723720743e-02)	(5.9183592266682634e-02 -8.2102314488547972e-03 -6.9383991403237116e-02)	(-1.5311569653365756e-06 -1.5289316992663025e-04 -5.9043204836318436e-06)
3.6                     	(5.9353900237855604e-02 -8.1370688803454449e-03 -6.9553569654315084e-02)	(5.9355387486036137e-02 -7.9844269699997760e-03 -6.9547626064203935e-02)	(-1.4872481805354779e-06 -1.5264191034566812e-04 -5.9435901111437105e-06)
3.7                     	(5.8587606564835651e-02 -8.2208599107186937e-03 -6.8623741978162067e-02)	(5.8589187458155653e-02 -8.0683205670173223e-03 -6.8617937015282862e-02)	(-1.5808933199994815e-06 -1.5253934370137187e-04 -5.8049628792083091e-06)
3.8                     	(5.8422381321127072e-02 -8.1221869639581598e-03 -6.8469038937009341e-02)	(5.8423794234812032e-02 -7.9699621748319811e-03 -6.8463034871976469e-02)	(-1.4129136849613965e-06 -1.5222478912617883e-04 -6.0040650328687424e-06)
3.9                     	(5.8457223632025809e-02 -8.2925837533164796e-03 -6.8408816505466583e-02)	(5.8458806262102453e-02 -8.1402535342202063e-03 -6.8403046712929336e-02)	(-1.5826300766425263e-06 -1.5233021909627384e-04 -5.7697925372454580e-06)
4                       	(5.8015393266311471e-02 -8.0585406356841749e-03 -6.8014751730193737e-02)	(5.8016751716731117e-02 -7.9066573319708511e-03 -6.8008699487731902e-02)	(-1.3584504196478926e-06 -1.5188330371332316e-04 -6.0522424618367093e-06)
4.1                     	(5.8471790734811784e-02 -8.3752836522001835e-03 -6.8127412990820688e-02)	(5.8473407059038307e-02 -8.2231427101599926e-03 -6.8121734901592554e-02)	(-1.6163242265226292e-06 -1.5214094204019091e-04 -5.6780892281298732e-06)
4.2                     	(5.7323930339652669e-02 -8.0352049261056598e-03 -6.7115226552562052e-02)	(5.7325458820350159e-02 -7.8833089362535993e-03 -6.7109435491466696e-02)	(-1.5284806974888401e-06 -1.5189598985206108e-04 -5.7910610953531682e-06)
4.3                     	(5.5962927479804275e-02 -8.2400960438245366e-03 -6.5705209659126920e-02)	(5.5964643125462961e-02 -8.0880233383102493e-03 -6.5699656865110714e-02)	(-1.7156456586833086e-06 -1.5207270551428784e-04 -5.5527940162126264e-06)
4.4                     	(5.6645080175368040e-02 -8.0800220244119317e-03 -6.6328854593520836e-02)	(5.6646632830516297e-02 -7.9282475961442323e-03 -6.6323112193103564e-02)	(-1.5526551482588125e-06 -1.5177442826769965e-04 -5.7424004172707350e-06)
4.5                     	(5.6416293668764599e-02 -8.2741371762128871e-03 -6.5989312330746799e-02)	(5.6418031680649391e-02 -8.1221882932095337e-03 -6.5983807724488377e-02)	(-1.7380118847907921e-06 -1.5194888300335414e-04 -5.5046062584180407e-06)
4.6                     	(5.5558886621162096e-02 -8.0393379701173915e-03 -6.5262879240937419e-02)	(5.5560498323864276e-02 -7.8877037336024872e-03 -6.5257218831508673e-02)	(-1.6117027021776118e-06 -1.5163423651490501e-04 -5.6604094287402974e-06)
4.7                     	(5.6431658421335081e-02 -8.2913327884165770e-03 -6.5973540065596012e-02)	(5.6433423266548204e-02 -8.1395114907113087e-03 -6.5968087976811127e-02)	(-1.7648452131256684e-06 -1.5182129770526854e-04 -5.4520887848803263e-06)
4.8                     	(5.5759760949548091e-02 -8.0644047481522717e-03 -6.5361129388298952e-02)	(5.5761397751361172e-02 -7.9128876580316174e-03 -6.5355519777175061e-02)	(-1.6368018130833250e-06 -1.5151709012065437e-04 -5.6096111238948143e-06)
4.9                     	(5.5486827113144621e-02 -8.2500359867496587e-03 -6.5030380676517688e-02)	(5.5488610780369575e-02 -8.0983565464086901e-03 -6.5024967268175873e-02)	(-1.7836672249528393e-06 -1.5167944034096833e-04 -5.4134083418144249e-06)
5                       	(5.4716618071101744e-02 -8.0357868261857202e-03 -6.4376350784874484e-02)	(5.4718271333505500e-02 -7.8844144328939735e-03 -6.4370775542222730e-02)	(-1.6532624037539677e-06 -1.5137239329174741e-04 -5.5752426517594153e-06)
5.1                     	(5.5065182099824937e-02 -8.2777564473494464e-03 -6.4639446297549405e-02)	(5.5066986855038698e-02 -8.1262201488132065e-03 -6.4634072732475123e-02)	(-1.8047552137617623e-06 -1.5153629853623932e-04 -5.3735650742799612e-06)
5.2                     	(5.4997435965529105e-02 -8.0571351728148093e-03 -6.4567869283593718e-02)	(5.4999111626420946e-02 -7.9059205407259331e-03 -6.4562343885816553e-02)	(-1.6756608918381683e-06 -1.5121463208887575e-04 -5.5253977771619988e-06)
5.3                     	(5.4845216908611154e-02 -8.2642265433427540e-03 -6.4375424519820382e-02)	(5.4847028243259384e-02 -8.1128703152134659e-03 -6.4370079388382670e-02)	(-1.8113346482335721e-06 -1.5135622812928820e-04 -5.3451314377142286e-06)
5.4                     	(5.4746075473041451e-02 -8.0609710602677423e-03 -6.4293769394575734e-02)	(5.4747778607378540e-02 -7.9098926337368702e-03 -6.4288294239689722e-02)	(-1.7031343370890361e-06 -1.5107842653087119e-04 -5.4751548860099990e-06)
5.5                     	(5.4670024278351076e-02 -8.2550800848051383e-03 -6.4171026712915843e-02)	(5.4671841725427196e-02 -8.1038551442916083e-03 -6.4165703605373395e-02)	(-1.8174470761211399e-06 -1.5122494051352935e-04 -5.3231075424426293e-06)
5.6                     	(5.4524178164801845e-02 -8.0604082224900488e-03 -6.4044855783246701e-02)	(5.4525889914120419e-02 -7.9094454054271495e-03 -6.4039403360702227e-02)	(-1.7117493185763378e-06 -1.5096281706289839e-04 -5.4524225444701348e-06)
5.7                     	(5.4632823702671619e-02 -8.2575469687649512e-03 -6.4109108135964266e-02)	(5.4634643570932236e-02 -8.1064297450922224e-03 -6.4103799518750851e-02)	(-1.8198682606150770e-06 -1.5111722367272876e-04 -5.3086172134130141e-06)
5.8                     	(5.4477778063627275e-02 -8.0612210782357481e-03 -6.3977703578700737e-02)	(5.4479497042034246e-02 -7.9103469414709589e-03 -6.3972270515072635e-02)	(-1.7189784069721785e-06 -1.5087413676478847e-04 -5.4330636281038322e-06)
5.9                     	(5.4559655764529667e-02 -8.2533496732485716e-03 -6.4019978369873012e-02)	(5.4561474561458524e-02 -8.1023156457048599e-03 -6.4014676664434125e-02)	(-1.8187969288602485e-06 -1.5103402754371251e-04 -5.3017054388872797e-06)
6                       	(5.4844457121163794e-02 -8.0728566080632887e-03 -6.4261775104013735e-02)	(5.4846186248746445e-02 -7.9220321066374687e-03 -6.4256362741566042e-02)	(-1.7291275826504108e-06 -1.5082450142581922e-04 -5.4123624476888206e-06)
6.1                     	(5.3925800954001291e-02 -8.2061660838851878e-03 -6.3437794991255403e-02)	(5.3927625141097460e-02 -8.0551763765537802e-03 -6.3432501293306243e-02)	(-1.8241870961727490e-06 -1.5098970733140702e-04 -5.2936979491569127e-06)
6.2                     	(5.4719488721019567e-02 -8.0774752080832457e-03 -6.4131071534655443e-02)	(5.4721258196581322e-02 -7.9266214283658862e-03 -6.4125718318716815e-02)	(-1.7694755617574901e-06 -1.5085377971736007e-04 -5.3532159386287956e-06)
6.3                     	(5.3988197716453856e-02 -8.2015575678894091e-03 -6.3440466457350714e-02)	(5.3990017591802941e-02 -8.0505925750810857e-03 -6.3435173922641003e-02)	(-1.8198753490866561e-06 -1.5096499280832406e-04 -5.2925347097092861e-06)
6.4                     	(5.4098482790246004e-02 -8.0470666986245682e-03 -6.3533797450318674e-02)	(5.4100277248425963e-02 -7.8962002364789570e-03 -6.3528476120697550e-02)	(-1.7944581799617385e-06 -1.5086646214561042e-04 -5.3213296211281544e-06)
6.5                     	(5.3142139948024941e-02 -8.1703949658489244e-03 -6.2673446414108588e-02)	(5.3143972799689285e-02 -8.0194488399170111e-03 -6.2668167186379131e-02)	(-1.8328516643445449e-06 -1.5094612593191334e-04 -5.2792277294502923e-06)
6.6                     	(5.3857089801864079e-02 -8.0813193679608528e-03 -6.3331696922287933e-02)	(5.3858896521195382e-02 -7.9304712249641165e-03 -6.3326387177335297e-02)	(-1.8067193313017529e-06 -1.5084814299673709e-04 -5.3097449526347078e-06)
6.7                     	(5.3795383841310537e-02 -8.2052958928925529e-03 -6.3247938045090865e-02)	(5.3797229142978360e-02 -8.0543617950502664e-03 -6.3242673780888506e-02)	(-1.8453016678232061e-06 -1.5093409784228731e-04 -5.2642642023558336e-06)
6.8                     	(5.3758832045325174e-02 -8.0661687062809108e-03 -6.3222906629011144e-02)	(5.3760634758481370e-02 -7.9153612891631996e-03 -6.3217588681310125e-02)	(-1.8027131561990947e-06 -1.5080741711771112e-04 -5.3179477010256504e-06)
6.9                     	(5.3778487806641039e-02 -8.2148416257148901e-03 -6.3234476563491279e-02)	(5.3780350435533149e-02 -8.0639139316011580e-03 -6.3229232256825446e-02)	(-1.8626288921113568e-06 -1.5092769411373296e-04 -5.2443066658306037e-06)
7                       	(5.3767416061684933e-02 -8.0640507290519348e-03 -6.3226334971529727e-02)	(5.3769228674741917e-02 -7.9132591091123760e-03 -6.3221028676502339e-02)	(-1.8126130569827235e-06 -1.5079161993955913e-04 -5.3062950273904095e-06)
7.1                     	(5.3740429858799614e-02 -8.2157487743112975e-03 -6.3192541270664718e-02)	(5.3742302370685349e-02 -8.0648394896365092e-03 -6.3187307984961638e-02)	(-1.8725118857369433e-06 -1.5090928467478894e-04 -5.2332857030760964e-06)
7.2                     	(5.3748163883939618e-02 -8.0630671320943304e-03 -6.3203054482400337e-02)	(5.3749974645511331e-02 -7.9123108428284065e-03 -6.3197744647211798e-02)	(-1.8107615717156786e-06 -1.5075628926592463e-04 -5.3098351885423685e-06)
7.3                     	(5.3839549568198919e-02 -8.2198912632897806e-03 -6.3278055096238905e-02)	(5.3841428482234020e-02 -8.0690056028761472e-03 -6.3272829813022319e-02)	(-1.8789140350983169e-06 -1.5088566041363355e-04 -5.2252832165848329e-06)
7.4                     	(5.3870501944417316e-02 -8.0443102718453455e-03 -6.3280992028623209e-02)	(5.3872321404304604e-02 -7.8935737423727614e-03 -6.3275694299501889e-02)	(-1.8194598872873313e-06 -1.5073652947258356e-04 -5.2977291213267423e-06)
7.5                     	(5.2996632289639467e-02 -8.1725143728506727e-03 -6.2513994748945534e-02)	(5.2998515690391781e-02 -8.0216464287448420e-03 -6.2508772839284257e-02)	(-1.8834007523119985e-06 -1.5086794410583144e-04 -5.2219096612752232e-06)
7.6                     	(5.3771461429560762e-02 -8.0738379916875866e-03 -6.3220619066106973e-02)	(5.3773304840242835e-02 -7.9230830325232402e-03 -6.3215351559337912e-02)	(-1.8434106820756108e-06 -1.5075495916434657e-04 -5.2675067690603116e-06)
7.7                     	(5.3459746948690830e-02 -8.1938515604352072e-03 -6.2901077344362746e-02)	(5.3461633604348968e-02 -8.0430079380123878e-03 -6.2895858700587476e-02)	(-1.8866556581407285e-06 -1.5084362242281929e-04 -5.2186437752669259e-06)
7.8                     	(5.3853407229181811e-02 -8.0750909038705843e-03 -6.3258767518028641e-02)	(5.3855256805252938e-02 -7.9243587755763907e-03 -6.3253503167927105e-02)	(-1.8495760711233637e-06 -1.5073212829419419e-04 -5.2643501015334191e-06)
7.9                     	(5.3594050116547248e-02 -8.1795493786729553e-03 -6.2989573630668122e-02)	(5.3595954370390470e-02 -8.0287193436049311e-03 -6.2984369603719587e-02)	(-1.9042538432209198e-06 -1.5083003506802367e-04 -5.2040269485399246e-06)
8                       	(5.2830667351237343e-02 -8.0297831502908566e-03 -6.2350989717300020e-02)	(5.2832540593070840e-02 -7.8790421638003649e-03 -6.2345745215829501e-02)	(-1.8732418334954556e-06 -1.5074098649049233e-04 -5.2445014705180656e-06)
8.1                     	(5.3538911705868157e-02 -8.2012844073303202e-03 -6.2969960110027923e-02)	(5.3540828597952762e-02 -8.0504323362199526e-03 -6.2964768631618734e-02)	(-1.9168920846063408e-06 -1.5085207111036801e-04 -5.1914784091883735e-06)
8.2                     	(4.9585632961970182e-02 -7.9820350528715701e-03 -6.0604151414032380e-02)	(4.9587414646441758e-02 -7.8312660821577094e-03 -6.0598638362435939e-02)	(-1.7816844715753644e-06 -1.5076897071386163e-04 -5.5130515964417183e-06)
8.3                     	(5.8225732058611764e-02 -8.3684209027517636e-03 -6.8299468171141006e-02)	(5.8227549017284115e-02 -8.2177362016002953e-03 -6.8294127487276937e-02)	(-1.8169586723486774e-06 -1.5068470115146918e-04 -5.3406838640738133e-06)
8.4                     	(5.7854733047609221e-02 -8.1658217908617166e-03 -6.8326940868923658e-02)	(5.7856528568332857e-02 -8.0151821999670751e-03 -6.8321559148422778e-02)	(-1.7955207236345351e-06 -1.5063959089464175e-04 -5.3817205008758176e-06)
8.5                     	(5.7797808378708196e-02 -8.2358396067689667e-03 -6.8146344048554436e-02)	(5.7799497632714726e-02 -8.0852832303201175e-03 -6.8140833686290370e-02)	(-1.6892540065273342e-06 -1.5055637644884951e-04 -5.5103622640666362e-06)
8.6                     	(5.7834178099899061e-02 -8.2228608246725544e-03 -6.8144887260743567e-02)	(5.7835843093824162e-02 -8.0721376241116236e-03 -6.8139343694197427e-02)	(-1.6649939251020226e-06 -1.5072320056093013e-04 -5.5435665461397606e-06)
8.7                     	(5.7188284368853259e-02 -8.1620474167817137e-03 -6.7550182558786392e-02)	(5.7189740101261245e-02 -8.0114574763085304e-03 -6.7544346161050609e-02)	(-1.4557324079863892e-06 -1.5058994047318324e-04 -5.8363977357886466e-06)
8.8                     	(5.7868765798036091e-02 -8.3982230882281815e-03 -6.8175420121908983e-02)	(5.7870496912697883e-02 -8.2472752693391327e-03 -6.8169924747737781e-02)	(-1.7311146617946067e-06 -1.5094781888904893e-04 -5.4953741712007480e-06)
8.9                     	(5.8059792232133534e-02 -8.1273219443936152e-03 -6.8422107790203301e-02)	(5.8061093911103021e-02 -7.9768149391930068e-03 -6.8416060261617506e-02)	(-1.3016789694887584e-06 -1.5050700520060766e-04 -6.0475285858007688e-06)
9                       	(5.7910114180927216e-02 -8.4015876261934012e-03 -6.8265302222179552e-02)	(5.7911793339050929e-02 -8.2507402950811378e-03 -6.8259735234090263e-02)	(-1.6791581237105173e-06 -1.5084733111226365e-04 -5.5669880892835389e-06)
9.1                     	(5.8601231665813339e-02 -8.2847182510829721e-03 -6.9051540099320477e-02)	(5.8602900037434291e-02 -8.1337726661380953e-03 -6.9045963886923134e-02)	(-1.6683716209539945e-06 -1.5094558494487632e-04 -5.5762123973383973e-06)
9.2                     	(5.8070830670405735e-02 -8.1787266326472721e-03 -6.8423137044462498e-02)	(5.8072287765476550e-02 -8.0280197482295139e-03 -6.8417283606022103e-02)	(-1.4570950708182560e-06 -1.5070688441775801e-04 -5.8534384403920562e-06)
9.3                     	(5.8102142588456376e-02 -8.4109966935988316e-03 -6.8500890260835862e-02)	(5.8103832572840255e-02 -8.2599547818783432e-03 -6.8495333320536381e-02)	(-1.6899843838798738e-06 -1.5104191172048777e-04 -5.5569402994835456e-06)
9.4                     	(5.8378832111998270e-02 -8.1104538750283242e-03 -6.8784005568128012e-02)	(5.8380112638487469e-02 -7.9599053350710505e-03 -6.8777932100294453e-02)	(-1.2805264891985086e-06 -1.5054853995727407e-04 -6.0734678335553640e-06)
9.5                     	(5.8008594777377326e-02 -8.3908988692768527e-03 -6.8424302127799139e-02)	(5.8010263284555413e-02 -8.2400690767241869e-03 -6.8418718391094258e-02)	(-1.6685071780889365e-06 -1.5082979255266494e-04 -5.5837367048813663e-06)
9.6                     	(5.8911972739600506e-02 -8.2742273910244163e-03 -6.9378605895016057e-02)	(5.8913610198679862e-02 -8.1233157813208508e-03 -6.9373002220559712e-02)	(-1.6374590793533858e-06 -1.5091160970356616e-04 -5.6036744563496382e-06)
9.7                     	(5.8276662413516776e-02 -8.1432876853772870e-03 -6.8642608091131721e-02)	(5.8278109965047967e-02 -7.9926234640811476e-03 -6.8636746456238795e-02)	(-1.4475515311930413e-06 -1.5066422129613859e-04 -5.8616348929284445e-06)
9.8                     	(5.7829756948655414e-02 -8.3308249172760439e-03 -6.8246348776956164e-02)	(5.7831431228502823e-02 -8.1798232417154976e-03 -6.8240786948778720e-02)	(-1.6742798474077791e-06 -1.5100167556054566e-04 -5.5618281774409474e-06)
9.9                     	(5.7856976932849684e-02 -8.0815958321368564e-03 -6.8346813859481437e-02)	(5.7858243744299175e-02 -7.9310942040343758e-03 -6.8340727827314818e-02)	(-1.2668114494900101e-06 -1.5050162810247990e-04 -6.0860321666236829e-06)
10                      	(5.7802166645294722e-02 -8.3812073324267683e-03 -6.8231462691877007e-02)	(5.7803831516771279e-02 -8.2304069222654715e-03 -6.8225882782419200e-02)	(-1.6648714765563560e-06 -1.5080041016129702e-04 -5.5799094578007049e-06)
10.1                    	(5.8790634834085524e-02 -8.2829680572470525e-03 -6.9271576203441848e-02)	(5.8792279042841400e-02 -8.1320626557146152e-03 -6.9265983169999296e-02)	(-1.6442087558773753e-06 -1.5090540153243689e-04 -5.5930334425461910e-06)
10.2                    	(5.8134490968078961e-02 -8.1252516666441774e-03 -6.8504075678534532e-02)	(5.8135930424406387e-02 -7.9746198345005195e-03 -6.8498210370622564e-02)	(-1.4394563274291848e-06 -1.5063183214365832e-04 -5.8653079119672794e-06)
10.3                    	(5.7302799597948782e-02 -8.3569713293149845e-03 -6.7789418309756475e-02)	(5.7304501259784965e-02 -8.2059653299061987e-03 -6.7783884359937208e-02)	(-1.7016618361829339e-06 -1.5100599940878604e-04 -5.5339498192693930e-06)
10.4                    	(5.8207272458852086e-02 -8.0979832171048684e-03 -6.8654525429419619e-02)	(5.8208569521801819e-02 -7.9474728028253276e-03 -6.8648481586754018e-02)	(-1.2970629497353093e-06 -1.5051041427954071e-04 -6.0438426656035784e-06)
10.5                    	(5.7684476767420667e-02 -8.3765053757293775e-03 -6.8130534126527101e-02)	(5.7686173348685074e-02 -8.2257078638920660e-03 -6.8124989928562335e-02)	(-1.6965812644063909e-06 -1.5079751183731124e-04 -5.5441979647589771e-06)
10.6                    	(5.8358766158499220e-02 -8.2740438445722524e-03 -6.8878835901663771e-02)	(5.8360425539361237e-02 -8.1231613198090771e-03 -6.8873263337206322e-02)	(-1.6593808620145757e-06 -1.5088252476317575e-04 -5.5725644574473426e-06)
10.7                    	(5.7687319785881333e-02 -8.1490055042279207e-03 -6.8109212033300531e-02)	(5.7688798351199777e-02 -7.9983697593034760e-03 -6.8103390198617123e-02)	(-1.4785653184442073e-06 -1.5063574492444487e-04 -5.8218346834054302e-06)
10.8                    	(5.7664309017269690e-02 -8.3900407247541175e-03 -6.8129397136636807e-02)	(5.7666013771594596e-02 -8.2390696052126369e-03 -6.8123870371298800e-02)	(-1.7047543249029863e-06 -1.5097111954148060e-04 -5.5267653380008949e-06)
10.9                    	(5.7880254770499427e-02 -8.0934327768265868e-03 -6.8343099128584203e-02)	(5.7881583566193745e-02 -7.9429332948596706e-03 -6.8337093709621474e-02)	(-1.3287956943206085e-06 -1.5049948196691685e-04 -6.0054189627329496e-06)
11                      	(5.7321578347001252e-02 -8.3695078982601503e-03 -6.7793076248176556e-02)	(5.7323284982773538e-02 -8.2187069387060930e-03 -6.7787550612378220e-02)	(-1.7066357722895680e-06 -1.5080095955405799e-04 -5.5256357983377321e-06)
11.1                    	(5.7685017836166266e-02 -8.2097666612089837e-03 -6.8230228691854813e-02)	(5.7686693499341128e-02 -8.0589084147591056e-03 -6.8224677862960312e-02)	(-1.6756631748637046e-06 -1.5085824644987879e-04 -5.5508288945064785e-06)
11.2                    	(5.7323895312607745e-02 -8.1619931694608631e-03 -6.7772659275030706e-02)	(5.7325394807453585e-02 -8.0113666960549210e-03 -6.7766868206973724e-02)	(-1.4994948458403817e-06 -1.5062647340594233e-04 -5.7910680569754208e-06)
11.3                    	(5.7781830614734277e-02 -8.3592718202855631e-03 -6.8201177632432206e-02)	(5.7783555558137703e-02 -8.2083254530388328e-03 -6.8195674788535054e-02)	(-1.7249434034251235e-06 -1.5094636724672999e-04 -5.5028438971490070e-06)
11.4                    	(5.7345664788545254e-02 -8.0277528340935191e-03 -6.7824701840887944e-02)	(5.7347018148223156e-02 -7.8772476114836575e-03 -6.7818732578988156e-02)	(-1.3533596779010192e-06 -1.5050522260986234e-04 -5.9692618997887754e-06)
11.5                    	(5.7208915632996321e-02 -8.3628087983332305e-03 -6.7690875061828096e-02)	(5.7210650898168305e-02 -8.2120074693995959e-03 -6.7685382212000780e-02)	(-1.7352651719849681e-06 -1.5080132893363418e-04 -5.4928498273189941e-06)
11.6                    	(5.7777171681793901e-02 -8.2205212287380196e-03 -6.8320333936438438e-02)	(5.7778873072018962e-02 -8.0696835267367595e-03 -6.8314812045639411e-02)	(-1.7013902250624009e-06 -1.5083770200125923e-04 -5.5218907990200211e-06)
11.7                    	(5.7195168869539792e-02 -8.1567265114877909e-03 -6.7642594081618407e-02)	(5.7196739315139487e-02 -8.0060680918960739e-03 -6.7636891352832879e-02)	(-1.5704455996951305e-06 -1.5065841959171624e-04 -5.7027287855326738e-06)
11.8                    	(5.7073485874785668e-02 -8.3382734162599330e-03 -6.7570298064441522e-02)	(5.7075214770938694e-02 -8.1873646229671804e-03 -6.7564798318952915e-02)	(-1.7288961530228610e-06 -1.5090879329275175e-04 -5.4997454886117491e-06)
11.9                    	(5.7148653149969808e-02 -8.0915818323599644e-03 -6.7646419430098068e-02)	(5.7150056743463518e-02 -7.9410961069158927e-03 -6.7640503662435417e-02)	(-1.4035934937064352e-06 -1.5048572544407109e-04 -5.9157676626502579e-06)
12                      	(5.6800691811675463e-02 -8.3634300462704717e-03 -6.7314345198106917e-02)	(5.6802457837174018e-02 -8.2126150233807552e-03 -6.7308887530139777e-02)	(-1.7660254985553297e-06 -1.5081502288971611e-04 -5.4576679671356919e-06)
12.1                    	(5.7410766093454579e-02 -8.1907821473341177e-03 -6.7961905764653191e-02)	(5.7412490540166346e-02 -8.0399783599828228e-03 -6.7956408612897978e-02)	(-1.7244467117688210e-06 -1.5080378735129495e-04 -5.4971517552103963e-06)