# MyForce               
# CofR                  : (4.9746127460000000e-01 -1.6718957440000001e-02 1.2500000000000000e-01)
#
# Time                  	(total_x total_y total_z)	(pressure_x pressure_y pressure_z)	(viscous_x viscous_y viscous_z)
0.1                     	(1.3046191129958654e-01 -2.9589810464780392e-01 2.9116708520461782e-18)	(1.2974816106791548e-01 -2.9583499791191326e-01 2.9868705356629506e-18)	(7.1375023167104300e-04 -6.3106735890682743e-05 -7.5199683616772250e-20)
0.2                     	(-2.9591630655809387e-02 2.6761914780605389e-01 1.2533504657144768e-18)	(-3.0192714357186505e-02 2.6760713886846860e-01 1.2557692693687164e-18)	(6.0108370137711945e-04 1.2008937585315808e-05 -2.4188036542395860e-21)
0.3                     	(1.9564900380706796e-02 1.2681051132504070e-01 3.1596473775480280e-19)	(1.8991163434402079e-02 1.2680909170758270e-01 3.1939312447576432e-19)	(5.7373694630471616e-04 1.4196174579966597e-06 -3.4283867209615239e-21)
0.4                     	(7.3223818939830094e-03 1.6276547698390187e-01 6.2713974666992053e-19)	(6.7881975775997971e-03 1.6276228202091700e-01 6.2928452193387673e-19)	(5.3418431638321210e-04 3.1949629848579286e-06 -2.1447752639562104e-21)
0.5                     	(1.1476305752982375e-02 1.5873571273820761e-01 4.5148540609336480e-19)	(1.0966764822540142e-02 1.5873224660024113e-01 4.5393920190886441e-19)	(5.0954093044223352e-04 3.4661379664900370e-06 -2.4537958154996244e-21)
0.6                     	(1.4782580644338090e-02 1.5550188971312240e-01 4.3396166493181163e-19)	(1.4293969462253571e-02 1.5550082404592319e-01 4.3611425130369425e-19)	(4.8861118208451859e-04 1.0656671991949751e-06 -2.1525863718825733e-21)
0.7                     	(1.5090079727341792e-02 1.5722845844033295e-01 4.0403692850787565e-19)	(1.4624048486467207e-02 1.5722691834925243e-01 4.0599312518884435e-19)	(4.6603124087458454e-04 1.5400910805327275e-06 -1.9561966809686777e-21)
0.8                     	(1.6660256193086351e-02 1.6069992606594788e-01 3.8615759647808599e-19)	(1.6211486035819917e-02 1.6069899211950378e-01 3.8824578050504108e-19)	(4.4877015726643395e-04 9.3394644408678105e-07 -2.0881840269550840e-21)
0.9                     	(1.6523193322176208e-02 1.6137617873818105e-01 3.7415587350021356e-19)	(1.6090234885263777e-02 1.6137509281752796e-01 3.7608471333885673e-19)	(4.3295843691242908e-04 1.0859206531042836e-06 -1.9288398386431678e-21)
1                       	(1.7846516760375061e-02 1.5992619679226805e-01 3.3684512720377219e-19)	(1.7426599126888195e-02 1.5992680939609188e-01 3.3882064974237801e-19)	(4.1991763348686432e-04 -6.1260382383152871e-07 -1.9755225386058379e-21)
1.1                     	(1.7872729291660741e-02 1.6385801704046887e-01 3.4617014600451479e-19)	(1.7465544360507880e-02 1.6385934515446102e-01 3.4816997165099055e-19)	(4.0718493115285984e-04 -1.3281139921405134e-06 -1.9998256464757719e-21)
1.2                     	(1.7979116146285709e-02 1.6026552468149283e-01 3.4325270907094898e-19)	(1.7580063863759571e-02 1.6026820913890327e-01 3.4539138294088792e-19)	(3.9905228252613660e-04 -2.6844574104593000e-06 -2.1386738699389633e-21)
1.3                     	(1.7758678769719767e-02 1.5855622925534746e-01 3.5699681257950761e-19)	(1.7362442232118844e-02 1.5856055320767784e-01 3.5919294676581870e-19)	(3.9623653760092391e-04 -4.3239523303718128e-06 -2.1961341863110692e-21)
1.4                     	(1.8157891961487579e-02 1.5715765491641256e-01 3.6615485857780703e-19)	(1.7761904544049585e-02 1.5716264702571070e-01 3.6844206393218802e-19)	(3.9598741743799383e-04 -4.9921092981438648e-06 -2.2872053543809978e-21)
1.5                     	(1.8184269874929819e-02 1.6146574571721942e-01 3.6495371197677921e-19)	(1.7788731381000129e-02 1.6147103705680216e-01 3.6726693189648629e-19)	(3.9553849392968878e-04 -5.2913395827336663e-06 -2.3132199197070992e-21)
1.6                     	(1.8449627049225821e-02 1.5685458366558352e-01 3.6617647320833802e-19)	(1.8055907687341808e-02 1.5685926445621115e-01 3.6857983944902844e-19)	(3.9371936188401381e-04 -4.6807906276132859e-06 -2.4033662406904319e-21)
1.7                     	(1.8857108270043201e-02 1.5974152564260632e-01 3.6301222327673287e-19)	(1.8466854072029186e-02 1.5974585906301011e-01 3.6547690518627409e-19)	(3.9025419801401521e-04 -4.3334204037989726e-06 -2.4646819095412108e-21)
1.8                     	(1.8836622797649867e-02 1.5386919126346491e-01 3.7198026165721993e-19)	(1.8449271949856530e-02 1.5387327164299636e-01 3.7452841628999438e-19)	(3.8735084779333695e-04 -4.0803795314400229e-06 -2.5481546327744730e-21)
1.9                     	(1.9223798449432356e-02 1.5380920245104443e-01 3.7685191067709132e-19)	(1.8839608532323620e-02 1.5381264771012557e-01 3.7943598062754738e-19)	(3.8418991710873786e-04 -3.4452590811393089e-06 -2.5840699504560641e-21)
2                       	(1.9226125847962981e-02 1.5307857750419374e-01 3.8366169500885395e-19)	(1.8844756419865886e-02 1.5308173929723695e-01 3.8626843116831543e-19)	(3.8136942809709488e-04 -3.1617930432164358e-06 -2.6067361594615034e-21)
2.1                     	(1.9346982112994394e-02 1.5457935009880511e-01 3.8020850091243112e-19)	(1.8967487882444903e-02 1.5458225706507367e-01 3.8276469814554416e-19)	(3.7949423054948941e-04 -2.9069662685491038e-06 -2.5561972331130411e-21)
2.2                     	(1.9445064028473361e-02 1.5801909366673145e-01 3.7170946671213984e-19)	(1.9066122638527555e-02 1.5802188754377902e-01 3.7412045140763465e-19)	(3.7894138994580572e-04 -2.7938770475702454e-06 -2.4109846954947931e-21)
2.3                     	(1.9548207483438825e-02 1.5553351669805543e-01 3.6646042705370999e-19)	(1.9169496016887402e-02 1.5553605026013539e-01 3.6866589168266206e-19)	(3.7871146655142282e-04 -2.5335620799537675e-06 -2.2054646289520714e-21)
2.4                     	(1.9839211394256307e-02 1.5783565972220634e-01 3.6020501252423560e-19)	(1.9460049356257433e-02 1.5783847224073444e-01 3.6231008101592909e-19)	(3.7916203799887526e-04 -2.8125185280864533e-06 -2.1050684916934768e-21)
2.5                     	(1.9510762290450831e-02 1.5539480462942556e-01 3.6716464007325546e-19)	(1.9132133492741146e-02 1.5539702727250729e-01 3.6912515185021412e-19)	(3.7862879770968411e-04 -2.2226430817252715e-06 -1.9605117769586858e-21)
2.6                     	(2.0303499438459924e-02 1.5368716737992330e-01 3.5597386254161599e-19)	(1.9923932105830294e-02 1.5369038124055764e-01 3.5796640148730825e-19)	(3.7956733262962917e-04 -3.2138606343348922e-06 -1.9925389456922701e-21)
2.7                     	(1.9545091372806741e-02 1.5625422988999296e-01 3.6865467587481533e-19)	(1.9167197457389235e-02 1.5625636961098666e-01 3.7047091208409341e-19)	(3.7789391541750555e-04 -2.1397209937070805e-06 -1.8162362092780557e-21)
2.8                     	(2.0335371193510851e-02 1.5328590118186675e-01 3.5707822111596324e-19)	(1.9957169310301254e-02 1.5328916806392962e-01 3.5901643883159547e-19)	(3.7820188320959627e-04 -3.2668820628661534e-06 -1.9382177156322186e-21)
2.9                     	(2.0034620502253467e-02 1.5287870593848718e-01 3.6860890107751944e-19)	(1.9656690188808085e-02 1.5288198054231825e-01 3.7055427451907900e-19)	(3.7793031344538158e-04 -3.2746038310639018e-06 -1.9453734415595667e-21)
3                       	(1.9716349651386276e-02 1.4867960088544846e-01 3.7263080041240537e-19)	(1.9339643140149156e-02 1.4868234705744499e-01 3.7450601852099590e-19)	(3.7670651123711989e-04 -2.7461719965297748e-06 -1.8752181085905474e-21)
3.1                     	(2.0543530914146655e-02 1.5066043058986983e-01 3.6363294701313639e-19)	(2.0166106319082010e-02 1.5066382951220778e-01 3.6566057110686864e-19)	(3.7742459506464611e-04 -3.3989223379515236e-06 -2.0276240937322330e-21)
3.2                     	(1.9899802301550779e-02 1.4976559491179350e-01 3.7581771710334364e-19)	(1.9523070950926136e-02 1.4976862990068790e-01 3.7778855729327914e-19)	(3.7673135062464346e-04 -3.0349888943953004e-06 -1.9708401899354845e-21)
3.3                     	(2.0383672242067906e-02 1.4779340291478690e-01 3.6498434340312453e-19)	(2.0006444410892575e-02 1.4779711196296960e-01 3.6703372082899150e-19)	(3.7722783117532990e-04 -3.7090481826921869e-06 -2.0493774258669779e-21)
3.4                     	(1.9832670440561008e-02 1.4743913430488587e-01 3.7360088264293626e-19)	(1.9456877827752406e-02 1.4744193630239605e-01 3.7559555471088275e-19)	(3.7579261280860378e-04 -2.8019975101914558e-06 -1.9946720679465156e-21)
3.5                     	(2.0591667937759395e-02 1.4571794703461577e-01 3.6249509295340825e-19)	(2.0215214694672443e-02 1.4572171704609210e-01 3.6461135076624413e-19)	(3.7645324308695108e-04 -3.7700114763316930e-06 -2.1162578128358669e-21)
3.6                     	(2.0035073971570592e-02 1.4614104897636987e-01 3.7476897311816425e-19)	(1.9659239379298161e-02 1.4614471087572814e-01 3.7688461898829980e-19)	(3.7583459227242980e-04 -3.6618993582670899e-06 -2.1156458701355628e-21)
3.7                     	(2.0241384071235248e-02 1.4425428229801651e-01 3.7139491688458262e-19)	(1.9865802018339800e-02 1.4425817477024122e-01 3.7355351489295785e-19)	(3.7558205289544915e-04 -3.8924722247167182e-06 -2.1585980083752484e-21)
3.8                     	(1.9998431748180050e-02 1.4384746504866680e-01 3.7724832644945104e-19)	(1.9623624190901481e-02 1.4385094392178560e-01 3.7942854164658942e-19)	(3.7480755727856781e-04 -3.4788731187985470e-06 -2.1802151971383634e-21)
3.9                     	(2.0417982366407957e-02 1.4393325371365920e-01 3.6994416684998808e-19)	(2.0042915219677618e-02 1.4393715046212249e-01 3.7216171850049461e-19)	(3.7506714673033912e-04 -3.8967484632893232e-06 -2.2175516505065013e-21)
4                       	(1.9841721891874376e-02 1.4284537991166221e-01 3.8019814020090616e-19)	(1.9467755139264832e-02 1.4284872468544310e-01 3.8234856820985136e-19)	(3.7396675260954249e-04 -3.3447737808999792e-06 -2.1504280089452298e-21)
4.1                     	(2.0621605884402067e-02 1.4396912080365917e-01 -5.5252250318142166e-19)	(2.0247004775243181e-02 1.4397310051378781e-01 -5.5031057307694274e-19)	(3.7460110915888610e-04 -3.9797101286240664e-06 -2.2119301044788896e-21)
4.2                     	(1.9784264756576683e-02 1.4114286134042697e-01 -5.4611720378817272e-19)	(1.9410266768182884e-02 1.4114662476240222e-01 -5.3907062388681796e-19)	(3.7399798839379893e-04 -3.7634219752366975e-06 -7.0465799013547887e-21)
4.3                     	(2.0288747237919680e-02 1.3779180294660595e-01 -5.4551128018985890e-19)	(1.9914314140592096e-02 1.3779602720575704e-01 -5.3844935177894819e-19)	(3.7443309732758238e-04 -4.2242591510746627e-06 -7.0619284109107108e-21)
4.4                     	(1.9894613322253219e-02 1.3947139788631918e-01 -5.4492998416969496e-19)	(1.9520914642538086e-02 1.3947522083057654e-01 -5.3788869975688171e-19)	(3.7369867971513400e-04 -3.8229442573410495e-06 -7.0412844128132135e-21)
4.5                     	(2.0372563242860232e-02 1.3890808022846229e-01 -5.4969479794291512e-19)	(1.9998435021059989e-02 1.3891235955768849e-01 -5.4263664670589486e-19)	(3.7412822180024174e-04 -4.2793292261984723e-06 -7.0581512370202382e-21)
4.6                     	(1.9794441128894585e-02 1.3679697438985311e-01 -5.4037500236833753e-19)	(1.9421087629019850e-02 1.3680094272087417e-01 -5.3333563605037861e-19)	(3.7335349987473382e-04 -3.9683310210516372e-06 -7.0393663179588838e-21)
4.7                     	(2.0414902243248864e-02 1.3894591129009295e-01 -5.5114184450534311e-19)	(2.0041088161702615e-02 1.3895025668828404e-01 -5.4408649248672937e-19)	(3.7381408154624885e-04 -4.3453981910798166e-06 -7.0553520186137129e-21)
4.8                     	(1.9856160497323531e-02 1.3729156674090526e-01 -5.4244764881445209e-19)	(1.9483095435055608e-02 1.3729559687090467e-01 -5.3541009312097529e-19)	(3.7306506226792129e-04 -4.0301299994074896e-06 -7.0375556934768025e-21)
4.9                     	(2.0313221344592052e-02 1.3661954961998640e-01 -5.4660285399635286e-19)	(1.9939756543951366e-02 1.3662394136169562e-01 -5.3955130000944123e-19)	(3.7346480064068450e-04 -4.3917417092184077e-06 -7.0515539869116309e-21)
5                       	(1.9785697509736275e-02 1.3472314252821707e-01 -5.3801664832298112e-19)	(1.9412988719697731e-02 1.3472721318744837e-01 -5.3098222265228802e-19)	(3.7270879003854329e-04 -4.0706592313153883e-06 -7.0344256706931331e-21)
5.1                     	(2.0381474604679869e-02 1.3558137615042065e-01 -5.4630500341013919e-19)	(2.0008362247491286e-02 1.3558581981493179e-01 -5.3925449100676628e-19)	(3.7311235718858371e-04 -4.4436645111402255e-06 -7.0505124033729465e-21)
5.2                     	(1.9838261364138160e-02 1.3541457176030616e-01 -5.4087614215125592e-19)	(1.9465941013403234e-02 1.3541869756904798e-01 -5.3384178693625777e-19)	(3.7232035073492481e-04 -4.1258087418107865e-06 -7.0343552149981681e-21)
5.3                     	(2.0348161303343916e-02 1.3503977831685862e-01 -5.4591537510377731e-19)	(1.9975492315134555e-02 1.3504423818123956e-01 -5.3886613502439897e-19)	(3.7266898820935944e-04 -4.4598643809302127e-06 -7.0492400793783519e-21)
5.4                     	(1.9847706078198732e-02 1.3479567248163782e-01 -5.4097534613373071e-19)	(1.9475721092503735e-02 1.3479986593543905e-01 -5.3394150983310714e-19)	(3.7198498569499590e-04 -4.1934538012233331e-06 -7.0338363006235602e-21)
5.5                     	(2.0325640912270217e-02 1.3460841938919707e-01 -5.4595052546581122e-19)	(1.9953295180153680e-02 1.3461289430358517e-01 -5.3890234692552832e-19)	(3.7234573211653802e-04 -4.4749143880856327e-06 -7.0481785402829262e-21)
5.6                     	(1.9846320260200143e-02 1.3424931739357754e-01 -5.4092075948687931e-19)	(1.9474619927895294e-02 1.3425353205916815e-01 -5.3388687301223091e-19)	(3.7170033230484915e-04 -4.2146655906157942e-06 -7.0338864746484119e-21)
5.7                     	(2.0331714868794471e-02 1.3451682420959585e-01 -5.4624006255642813e-19)	(1.9959634356857971e-02 1.3452130508541932e-01 -5.3919347323564015e-19)	(3.7208051193650035e-04 -4.4808758234806317e-06 -7.0465893207879362e-21)
5.8                     	(1.9848321671916424e-02 1.3413507116155099e-01 -5.4104953293217490e-19)	(1.9476839688056032e-02 1.3413930362658794e-01 -5.3401515734017811e-19)	(3.7148198386039339e-04 -4.2324650369382308e-06 -7.0343755919968289e-21)
5.9                     	(2.0321380296556266e-02 1.3433667026539592e-01 -5.4586165782499104e-19)	(1.9949504629954554e-02 1.3434114850338860e-01 -5.3881606059055903e-19)	(3.7187566660171222e-04 -4.4782379926755040e-06 -7.0455972344320200e-21)
6                       	(1.9876970649112164e-02 1.3503790756979553e-01 -5.4244723738728735e-19)	(1.9505610877279526e-02 1.3504216502411159e-01 -5.3541314256338255e-19)	(3.7135977183263782e-04 -4.2574543160575070e-06 -7.0340948239048511e-21)
6.1                     	(2.0205204961550448e-02 1.3277599427716055e-01 -5.4204522893073475e-19)	(1.9833438420082741e-02 1.3278048578681190e-01 -5.3500176845645692e-19)	(3.7176654146770720e-04 -4.4915096513542170e-06 -7.0434604742778097e-21)
6.2                     	(1.9888342556417568e-02 1.3473021063643845e-01 -5.4239530242512215e-19)	(1.9516910695636758e-02 1.3473456743546425e-01 -5.3535944383277006e-19)	(3.7143186078080918e-04 -4.3567990257927742e-06 -7.0358585923520509e-21)
6.3                     	(2.0193857883108273e-02 1.3292962745511522e-01 -5.4251702150201509e-19)	(1.9822152193687589e-02 1.3293410834839192e-01 -5.3547445487853662e-19)	(3.7170568942068369e-04 -4.4808932767005211e-06 -7.0425666234784603e-21)
6.4                     	(1.9813470788053726e-02 1.3320117113305102e-01 -5.3945992476740020e-19)	(1.9442007700624615e-02 1.3320558944422708e-01 -5.3242249404533752e-19)	(3.7146308742911098e-04 -4.4183111760628367e-06 -7.0374307220627015e-21)
6.5                     	(2.0117129389567345e-02 1.3084646578794057e-01 -5.3824875547325778e-19)	(1.9745470154130283e-02 1.3085097863147355e-01 -5.3120920717167114e-19)	(3.7165923543706138e-04 -4.5128435329774736e-06 -7.0395483015866234e-21)
6.6                     	(1.9897807638824878e-02 1.3260681382213632e-01 -5.3916352804738152e-19)	(1.9526389656765793e-02 1.3261126232269355e-01 -5.3212779853659599e-19)	(3.7141798205908528e-04 -4.4485005572375716e-06 -7.0357295107855235e-21)
6.7                     	(2.0203062379109127e-02 1.3245488153517201e-01 -5.4235501417538049e-19)	(1.9831432759209174e-02 1.3245942503307750e-01 -5.3531401129801490e-19)	(3.7162961989995120e-04 -4.5434979054928471e-06 -7.0410028773655531e-21)
6.8                     	(1.9860503711337043e-02 1.3236488377957600e-01 -5.3865235059339135e-19)	(1.9489186004452083e-02 1.3236932241613728e-01 -5.3161648210892468e-19)	(3.7131770688496053e-04 -4.4386365612821256e-06 -7.0358684844666615e-21)
6.9                     	(2.0226565862491250e-02 1.3241328015396112e-01 -5.4262272765447974e-19)	(1.9854952009838348e-02 1.3241786631492200e-01 -5.3558114690836431e-19)	(3.7161385265290349e-04 -4.5861609608804646e-06 -7.0415807461154288e-21)
7                       	(1.9855288832235411e-02 1.3238601932669622e-01 -5.3869420334701556e-19)	(1.9484010021129445e-02 1.3239048233877249e-01 -5.3165782045792252e-19)	(3.7127881110596782e-04 -4.4630120762775046e-06 -7.0363828890930644e-21)
7.1                     	(2.0228799441867236e-02 1.3231957395441660e-01 -5.4264098673042677e-19)	(1.9857230916896382e-02 1.3232418444926369e-01 -5.3559932666346081e-19)	(3.7156852497085467e-04 -4.6104948471066844e-06 -7.0416600669659438e-21)
7.2                     	(1.9852867021864430e-02 1.3233861665493402e-01 -5.3858599010811360e-19)	(1.9481675201869161e-02 1.3234307510828713e-01 -5.3154989317053498e-19)	(3.7119181999526932e-04 -4.4584533531269476e-06 -7.0360969375786250e-21)
7.3                     	(2.0238999069562513e-02 1.3256362629550619e-01 -5.4312216929430564e-19)	(1.9867488712198046e-02 1.3256825255371207e-01 -5.3608089946722459e-19)	(3.7151035736446801e-04 -4.6262582058687085e-06 -7.0412698270810130e-21)
7.4                     	(1.9806683919805338e-02 1.3263983717146793e-01 -5.3848643534228221e-19)	(1.9435540752331889e-02 1.3264431704179547e-01 -5.3145093369461145e-19)	(3.7114316747344944e-04 -4.4798703275275242e-06 -7.0355016476707964e-21)
7.5                     	(2.0122347789052503e-02 1.3048819713591719e-01 -5.3845863573319654e-19)	(1.9750881052744036e-02 1.3049283444130880e-01 -5.3141884806571715e-19)	(3.7146673630846655e-04 -4.6373053916044370e-06 -7.0397876674794296e-21)
7.6                     	(1.9879387009818526e-02 1.3239597982301574e-01 -5.3895517510449388e-19)	(1.9508198464796581e-02 1.3240051866494007e-01 -5.3192022920104183e-19)	(3.7118854502194679e-04 -4.5388419243417224e-06 -7.0349459034520675e-21)
7.7                     	(2.0174884167678219e-02 1.3162847708043435e-01 -5.4115800198154372e-19)	(1.9803477316166777e-02 1.3163312240004826e-01 -5.3411841588273943e-19)	(3.7140685151144351e-04 -4.6453196139255225e-06 -7.0395860988042861e-21)
7.8                     	(1.9882471927573961e-02 1.3259774659938317e-01 -5.3915054343516069e-19)	(1.9511339596672735e-02 1.3260230062171552e-01 -5.3211560504794907e-19)	(3.7113233090122790e-04 -4.5540223323549382e-06 -7.0349383872115883e-21)
7.9                     	(2.0139669365668415e-02 1.3195915805932087e-01 -5.4121071812953102e-19)	(1.9768295968913521e-02 1.3196384670914929e-01 -5.3417129330098318e-19)	(3.7137339675489531e-04 -4.6886498284083650e-06 -7.0394248285478156e-21)
8                       	(1.9770915271509745e-02 1.3007955861184065e-01 -5.3389207725605580e-19)	(1.9399761129976125e-02 1.3008417090396360e-01 -5.2685790558028257e-19)	(3.7115414153361865e-04 -4.6122921229503776e-06 -7.0341716757732258e-21)
8.1                     	(2.0193185307751240e-02 1.3182339637991577e-01 -5.4180303356336146e-19)	(1.9821757653898993e-02 1.3182811614759568e-01 -5.3476460590212774e-19)	(3.7142765385224841e-04 -4.7197676799038937e-06 -7.0384276612337166e-21)
8.2                     	(1.9653350005949824e-02 1.2208964172834257e-01 -1.5352421886626483e-18)	(1.9282126961719978e-02 1.2209402858812057e-01 -1.5257085323861633e-18)	(3.7122304422984565e-04 -4.3868597780010019e-06 -9.5336562764850539e-21)
8.3                     	(2.0604708437069460e-02 1.4336327564596110e-01 -1.5554729238354696e-18)	(2.0233692881179814e-02 1.4336774935780244e-01 -1.5500230878683079e-18)	(3.7101555588964463e-04 -4.4737118413389996e-06 -5.4498359671616924e-21)
8.4                     	(2.0105869327682543e-02 1.4244980265733129e-01 -1.5436744288607081e-18)	(1.9734964842172870e-02 1.4245422358470017e-01 -1.5381784228713503e-18)	(3.7090448550967080e-04 -4.4209273688707825e-06 -5.4960059893578179e-21)
8.5                     	(2.0278267047507414e-02 1.4230964285666964e-01 -1.5399388489723763e-18)	(1.9907567452432058e-02 1.4231380213434999e-01 -1.5344498224593991e-18)	(3.7069959507535493e-04 -4.1592776803568546e-06 -5.4890265129772045e-21)
8.6                     	(2.0246310717385800e-02 1.4239919230808751e-01 -1.5408050014427074e-18)	(1.9875200368330737e-02 1.4240329185264614e-01 -1.5353031396255469e-18)	(3.7111034905506503e-04 -4.0995445586320970e-06 -5.5018618171605040e-21)
8.7                     	(2.0096576071720062e-02 1.4080887411494386e-01 -1.5371052331481425e-18)	(1.9725793835374220e-02 1.4081245841623291e-01 -1.5316229091704654e-18)	(3.7078223634584172e-04 -3.5843012890388242e-06 -5.4823239776771327e-21)
8.8                     	(2.0678087315792827e-02 1.4248435406607082e-01 -1.5443870757182755e-18)	(2.0306423911960247e-02 1.4248861641296900e-01 -1.5388875598823237e-18)	(3.7166340383257832e-04 -4.2623468981686827e-06 -5.4995158359518254e-21)
8.9                     	(2.0011075086264013e-02 1.4295469895241086e-01 -1.5364865443859723e-18)	(1.9640497052972779e-02 1.4295790394364596e-01 -1.5309846882214492e-18)	(3.7057803329123586e-04 -3.2049912351040549e-06 -5.5018561645231108e-21)
9                       	(2.0686371474130986e-02 1.4258616196791007e-01 -1.5436425553098178e-18)	(2.0314955491092152e-02 1.4259029638752888e-01 -1.5381456381980992e-18)	(3.7141598303883354e-04 -4.1344196188094327e-06 -5.4969171117185856e-21)
9.1                     	(2.0398615943265998e-02 1.4428782999313525e-01 -1.5438857019480904e-18)	(2.0026958039846089e-02 1.4429193785424954e-01 -1.5383423990232825e-18)	(3.7165790341991078e-04 -4.1078611142914838e-06 -5.5433029248079232e-21)
9.2                     	(2.0137643602125454e-02 1.4298187777202850e-01 -1.5370690095013106e-18)	(1.9766573426643969e-02 1.4298546542846310e-01 -1.5315785083629224e-18)	(3.7107017548148577e-04 -3.5876564346122792e-06 -5.4905011383881457e-21)
9.3                     	(2.0709538460209544e-02 1.4305897391113723e-01 -1.5459746851856295e-18)	(2.0337643381204272e-02 1.4306313498715117e-01 -1.5404662708224323e-18)	(3.7189507900527190e-04 -4.1610760139460714e-06 -5.5084143631971497e-21)
9.4                     	(1.9969542561166745e-02 1.4374023827707005e-01 -1.5366284233930790e-18)	(1.9598862261084551e-02 1.4374339118671245e-01 -1.5311307456148922e-18)	(3.7068030008219458e-04 -3.1529096423918484e-06 -5.4976777781868621e-21)
9.5                     	(2.0660053639215706e-02 1.4282864068643336e-01 -1.5439605224744061e-18)	(2.0288680839581619e-02 1.4283274888131614e-01 -1.5384658945248276e-18)	(3.7137279963408645e-04 -4.1081948827855076e-06 -5.4946279495784004e-21)
9.6                     	(2.0372785369580409e-02 1.4505293601483416e-01 -1.5443796132761907e-18)	(2.0001211119928565e-02 1.4505696776315319e-01 -1.5388421507117039e-18)	(3.7157424965184515e-04 -4.0317483190423969e-06 -5.5374625644867250e-21)
9.7                     	(2.0050385900308058e-02 1.4348867625924397e-01 -1.5372722236479884e-18)	(1.9679420769875357e-02 1.4349224041759528e-01 -1.5317875036259858e-18)	(3.7096513043270067e-04 -3.5641583513155163e-06 -5.4847200220025664e-21)
9.8                     	(2.0512139680295194e-02 1.4238830655874601e-01 -1.5436832364325175e-18)	(2.0140343670678743e-02 1.4239242896708312e-01 -1.5381776146545302e-18)	(3.7179600961645041e-04 -4.1224083371039070e-06 -5.5056217779872279e-21)
9.9                     	(1.9898488348340560e-02 1.4245532754687532e-01 -1.5370447999601597e-18)	(1.9527923554529085e-02 1.4245844668737564e-01 -1.5315523494208440e-18)	(3.7056479381147661e-04 -3.1191405003182704e-06 -5.4924505393157999e-21)
10                      	(2.0636191157461542e-02 1.4232037377154000e-01 -1.5445440234898571e-18)	(2.0264890703090004e-02 1.4232447301460607e-01 -1.5390577338411777e-18)	(3.7130045437153874e-04 -4.0992430660791567e-06 -5.4862896486794270e-21)
10.1                    	(2.0394306619665226e-02 1.4475417807775690e-01 -1.5458891049962401e-18)	(2.0022747655759347e-02 1.4475822644511535e-01 -1.5403557806773037e-18)	(3.7155896390588032e-04 -4.0483673584570654e-06 -5.5333243189364748e-21)
10.2                    	(2.0005977652721108e-02 1.4313862202375960e-01 -1.5378234540760428e-18)	(1.9635092270791875e-02 1.4314216625011714e-01 -1.5323446635119776e-18)	(3.7088538192923330e-04 -3.5442263575461665e-06 -5.4787905640652026e-21)
10.3                    	(2.0576517321309964e-02 1.4109083327241675e-01 -1.5451437525593007e-18)	(2.0204710665523422e-02 1.4109502310062932e-01 -1.5396415476874585e-18)	(3.7180665578654098e-04 -4.1898282125733163e-06 -5.5022048718420620e-21)
10.4                    	(1.9938837333320622e-02 1.4331782445805677e-01 -1.5375343189761062e-18)	(1.9568250906202369e-02 1.4332101808373771e-01 -1.5320416622884461e-18)	(3.7058642711825180e-04 -3.1936256809254421e-06 -5.4926566876602201e-21)
10.5                    	(2.0624614009519374e-02 1.4203059800048720e-01 -1.5444336596884496e-18)	(2.0253320691395089e-02 1.4203477531932657e-01 -1.5389469671560105e-18)	(3.7129331812428524e-04 -4.1773188393754584e-06 -5.4866925324391095e-21)
10.6                    	(2.0372333441889930e-02 1.4369083192834967e-01 -1.5452416170286104e-18)	(2.0000830805117460e-02 1.4369491765243611e-01 -1.5397126740571155e-18)	(3.7150263677247184e-04 -4.0857240864426916e-06 -5.5289429714949337e-21)
10.7                    	(2.0064464301918397e-02 1.4203759807459237e-01 -1.5383489385448819e-18)	(1.9693569285948499e-02 1.4204123859502576e-01 -1.5328731054660223e-18)	(3.7089501596989906e-04 -3.6405204333935654e-06 -5.4758330788596487e-21)
10.8                    	(2.0657940717567366e-02 1.4198094100826358e-01 -1.5475210989823030e-18)	(2.0286219942917124e-02 1.4198513845079541e-01 -1.5420257598780374e-18)	(3.7172077465024247e-04 -4.1974425318292529e-06 -5.4953391042656456e-21)
10.9                    	(1.9927633248788556e-02 1.4251264219003112e-01 -1.5384948426936514e-18)	(1.9557073739187573e-02 1.4251591394800936e-01 -1.5330088781136713e-18)	(3.7055950960098360e-04 -3.2717579782472942e-06 -5.4859645799801834e-21)
11                      	(2.0607384835135828e-02 1.4113707026904188e-01 -1.5458129984206528e-18)	(2.0236083028050581e-02 1.4114127234406953e-01 -1.5403306263421211e-18)	(3.7130180708524525e-04 -4.2020750276478380e-06 -5.4823720785317128e-21)
11.1                    	(2.0214070295503418e-02 1.4203193021882057e-01 -1.5441564282945200e-18)	(1.9842627436743147e-02 1.4203605603318364e-01 -1.5386324641676766e-18)	(3.7144285876027083e-04 -4.1258143630714676e-06 -5.5239641268433064e-21)
11.2                    	(2.0096442504080173e-02 1.4114277509691039e-01 -1.5400877738619775e-18)	(1.9725570316423732e-02 1.4114646714998236e-01 -1.5346178745499327e-18)	(3.7087218765644145e-04 -3.6920530719564801e-06 -5.4698993120448597e-21)
11.3                    	(2.0582181585364283e-02 1.4227030243964420e-01 -1.5481589130959041e-18)	(2.0210521755762385e-02 1.4227454959168293e-01 -1.5426710951027278e-18)	(3.7165982960189796e-04 -4.2471520387238028e-06 -5.4878179931762072e-21)
11.4                    	(1.9765916231216790e-02 1.4119637585501432e-01 -1.5360977030127204e-18)	(1.9395342587016758e-02 1.4119970809438154e-01 -1.5306141557994351e-18)	(3.7057364420003264e-04 -3.3322393672224624e-06 -5.4835472132854302e-21)
11.5                    	(2.0590890325312642e-02 1.4085967237034905e-01 -1.5457494454213279e-18)	(2.0219587608741776e-02 1.4086394493662471e-01 -1.5402698111742649e-18)	(3.7130271657086482e-04 -4.2725662756750574e-06 -5.4796342470629240e-21)
11.6                    	(2.0240550169171066e-02 1.4225883122470656e-01 -1.5446901789479986e-18)	(1.9869157894909201e-02 1.4226302038415881e-01 -1.5391745348316818e-18)	(3.7139227426186605e-04 -4.1891594522406568e-06 -5.5156441163169087e-21)
11.7                    	(2.0083474949838583e-02 1.4082582511812933e-01 -1.5400042107927648e-18)	(1.9712524104350371e-02 1.4082969186599897e-01 -1.5345363025196686e-18)	(3.7095084548821123e-04 -3.8667478696436566e-06 -5.4679082730961079e-21)
11.8                    	(2.0530479358908428e-02 1.4052621750304956e-01 -1.5470839534258439e-18)	(2.0158912043817399e-02 1.4053047438754007e-01 -1.5415997807763263e-18)	(3.7156731509103080e-04 -4.2568844905127981e-06 -5.4841726495175328e-21)
11.9                    	(1.9923075857195667e-02 1.4071129421073147e-01 -1.5391648883919478e-18)	(1.9552550218876450e-02 1.4071475013569487e-01 -1.5336942375929077e-18)	(3.7052563831921641e-04 -3.4559249633917174e-06 -5.4706507990400829e-21)
12                      	(2.0592419960683856e-02 1.3985454453164101e-01 -1.5470863839660356e-18)	(2.0221083526882979e-02 1.3985889283592839e-01 -1.5416116563511102e-18)	(3.7133643380087727e-04 -4.3483042873951632e-06 -5.4747276149254481e-21)
12.1                    	(2.0167326665163011e-02 1.4135666815174708e-01 -1.5447986139339302e-18)	(1.9796017895481327e-02 1.4136091408083265e-01 -1.5392911449839073e-18)	(3.7130876968168535e-04 -4.2459290855669046e-06 -5.5074689500228320e-21)
12.2                    	(2.0136607039779840e-02 1.3981524767396811e-01 -1.5421610612538692e-18)	(1.9765491545858684e-02 1.3981936728011865e-01 -1.5366978325145287e-18)	(3.7111549392115505e-04 -4.1196061505379210e-06 -5.4632287393406171e-21)
12.3                    	(2.0296847846234867e-02 1.3814911861355234e-01 1.1485975885121900e-19)	(1.9925341439822383e-02 1.3815351183854355e-01 1.2235027169176797e-19)	(3.7150640641248544e-04 -4.3932249912175615e-06 -7.4905128405489847e-21)