# Trim_Forces           
# Time                  	total_x                 	total_y                 	total_z                 
5.9998801589244977e-05	-4.107600120403443e-17	-7.697656975383354e-17	+2.839301993145144e-17
1.319990842603147e-04	-3.769030891298386e-17	-6.512979811349664e-17	+2.366028205976225e-17
2.183956967201084e-04	-2.909558176210254e-17	-5.376178772397770e-17	+1.971775360247919e-17
3.220752114430070e-04	-2.467097559747810e-17	-4.446780084025392e-17	+1.643089336231479e-17
4.464906523935497e-04	-1.908417340409419e-17	-3.629315663829995e-17	+1.369241113526233e-17
5.957891698926687e-04	-1.368362054239545e-17	-2.971829257367044e-17	+1.141034261271861e-17
7.749580545350909e-04	-1.097816693333197e-17	-2.421854903796219e-17	+9.508050656370538e-18
9.899376891553402e-04	-8.008039055089849e-18	-1.950668831073568e-17	+7.924227981138653e-18
1.247879816219211e-03	-2.425684622958936e-01	-3.349384098766872e-02	-5.120419705163536e-17
1.557378447614610e-03	-1.041165189285044e+00	-1.464209841160395e-01	+6.444618007719432e-17
1.928822835907340e-03	+2.573300158940424e-01	+3.409990191045038e-02	+1.788936585701080e-18
2.374589443206787e-03	-3.035859512870612e-01	-4.635781571117975e-02	+7.217348417113657e-18
2.909509232267737e-03	-2.297276739724859e-01	-3.687116500618219e-02	+2.199393392112595e-18
3.551550675183535e-03	-2.291218525079420e-01	-3.924914691596593e-02	-1.878329496561934e-17
4.322199150919914e-03	-2.329805093499390e-01	-4.237622354991057e-02	+2.118740063878773e-17
5.203329958021641e-03	-2.534695945270185e-01	-4.777209290402333e-02	+3.792795412379993e-18
6.156200543045998e-03	-2.720108853550700e-01	-5.490468206968652e-02	-1.366306983763892e-17
6.989262998104095e-03	-3.260970210608244e-01	-6.376235975314674e-02	+2.124409005976728e-17
7.740974426269531e-03	-3.433027412183380e-01	-7.601695854578118e-02	+4.390331408307280e-18
8.434376679360867e-03	-4.392480015402893e-01	-9.290940885280363e-02	+3.463928993617003e-18
9.079507552087307e-03	-4.739565443820075e-01	-1.113600628054113e-01	+3.120242232485568e-18
9.686317294836044e-03	-5.176498916820931e-01	-1.324250146142789e-01	+3.572035321868141e-18
1.026007998734713e-02	-5.522154263907730e-01	-1.555318868591991e-01	+5.819650891441078e-18
1.080569159239531e-02	-5.663459607585392e-01	-1.668183544846920e-01	+6.244191903639243e-18
1.133241876959801e-02	+4.861375180610056e+00	+1.737956891939069e+00	+6.192332677077622e-18
1.193859148770571e-02	-3.132924812659044e+00	-1.179365148194635e+00	+1.768121576436243e-18
1.263884734362364e-02	+2.871793320318407e-01	+1.208653308951808e-01	+2.542399171169592e-18
1.346371043473482e-02	-1.656937507545327e-01	-5.880154491809431e-02	-1.629146285835023e-17
1.442151330411434e-02	-1.635219145191006e-01	-6.217542320117470e-02	+1.859050282640662e-17
1.551296189427376e-02	-1.687411935350204e-01	-6.860993429706581e-02	+2.925337750128217e-18
1.673592813313007e-02	-1.701511498384922e-01	-7.418228913162159e-02	-6.934460762292651e-18
1.805045083165169e-02	-1.691158895014247e-01	-7.879972895235271e-02	+1.288725156324205e-17
1.936321891844273e-02	-1.709618243810926e-01	-8.521144564922828e-02	+1.478187240127478e-18
2.067598514258862e-02	-1.723446240054309e-01	-9.143792845743526e-02	-6.221475267285545e-19
2.199228107929230e-02	-1.728150413438813e-01	-9.725304324920211e-02	-1.089165319016564e-17
2.331035025417805e-02	-1.695842484584498e-01	-1.014237156237729e-01	+1.452326678808530e-17
2.463020198047161e-02	-1.681479922732587e-01	-1.068707377382317e-01	+1.809119287614287e-18
2.595005184412003e-02	-1.696540964073509e-01	-1.135205329103066e-01	-1.006272064613471e-17
2.726990357041359e-02	-1.716347944484571e-01	-1.207634240036033e-01	+3.726236327308824e-18
2.858975343406200e-02	-1.699266042399316e-01	-1.262379088619632e-01	+1.568578363721442e-18
2.990781329572201e-02	-1.680343470040556e-01	-1.315299757096711e-01	+2.157776497279537e-18
3.122587502002716e-02	-1.669454444763676e-01	-1.374632028791997e-01	+1.464147225754316e-17
3.254214301705360e-02	-1.639639996611911e-01	-1.421793761940721e-01	-1.196637304470564e-17
3.385662287473679e-02	-1.628538748795604e-01	-1.483383674695427e-01	+1.550100953751864e-17
3.517110645771027e-02	-1.608126138696851e-01	-1.539381449318175e-01	+3.298195784468710e-18
3.648558631539345e-02	-1.599437262528541e-01	-1.605743051717306e-01	+2.262089697495378e-18
3.780006617307663e-02	-1.572494390144402e-01	-1.659067964312866e-01	+1.483231203049085e-18
3.911454603075981e-02	-1.527283180497923e-01	-1.696937589247464e-01	-9.819337040621334e-18
4.043082892894745e-02	-1.490143383738168e-01	-1.742420564380827e-01	+1.243982001367718e-17
4.174711182713509e-02	-1.464318036227755e-01	-1.798800325913443e-01	+2.129763821338253e-18
4.306339100003242e-02	-1.438938189941696e-01	-1.857808370924550e-01	+1.128704992689800e-18
4.438148438930511e-02	-1.414039974473428e-01	-1.918853603343701e-01	+2.346719975023039e-18
4.569958150386810e-02	-1.392459305924320e-01	-1.986587221115421e-01	-1.051879026232008e-17
4.701767489314079e-02	-1.365753239714619e-01	-2.050501382941632e-01	+1.308678769223975e-17
4.833759367465973e-02	-1.293989342185699e-01	-2.060463176175306e-01	+1.916597008659737e-18
4.965751618146896e-02	-1.223043797138596e-01	-2.068581326855812e-01	+2.239083817377939e-18
5.097743496298790e-02	-1.182498713283477e-01	-2.116120974905734e-01	+9.518928446666692e-19
5.229919403791428e-02	-1.119324875407580e-01	-2.132914703271477e-01	-8.624011010184947e-18
5.362095311284065e-02	-1.119162664734872e-01	-2.244819509266529e-01	+1.165624224882172e-17
5.494271218776703e-02	-1.090258733242704e-01	-2.319909400400477e-01	+4.215352151202948e-18
5.626446753740311e-02	-1.028632576599399e-01	-2.342112246102978e-01	+1.905025101243513e-18
5.758622661232948e-02	-9.536892795484243e-02	-2.339303065599412e-01	+2.978839892772578e-18
5.890984088182449e-02	-8.936899286340358e-02	-2.361531332420539e-01	+1.390409652719727e-18
6.023345887660980e-02	-8.407839479430264e-02	-2.397661835573477e-01	-4.863467748907152e-19
6.155707314610481e-02	-7.892657397821090e-02	-2.441034980606722e-01	+3.773760662937869e-18
6.288068741559982e-02	-7.399089876401518e-02	-2.488715425047331e-01	+2.678280138922725e-18
6.420430541038513e-02	-6.833991041249059e-02	-2.523460839978554e-01	-2.848860461720652e-19
6.552979350090027e-02	-6.195824478345175e-02	-2.541202545818769e-01	+2.143191178945260e-18
6.685528159141541e-02	-5.563837439468081e-02	-2.559324368594042e-01	+3.536408705690255e-18
6.818076968193054e-02	-4.935046447140937e-02	-2.578830914128604e-01	-1.203328016615751e-17
6.950625777244568e-02	-4.326890760351942e-02	-2.606414103611214e-01	+1.442358806530257e-17
7.083175331354141e-02	-3.708768057084865e-02	-2.632038486227788e-01	+1.867839053353186e-18
7.215724140405655e-02	-3.075673504164353e-02	-2.654697410252475e-01	+2.328875949428929e-18
7.348462939262390e-02	-2.421584347008193e-02	-2.669083629243593e-01	+1.794057880836917e-18
7.481200993061066e-02	-1.760218904737993e-02	-2.681690722363196e-01	+1.058810231663213e-18
7.613939791917801e-02	-1.094951182373792e-02	-2.693111574585078e-01	+3.180170568188278e-18
7.746678590774536e-02	-4.341607559423191e-03	-2.708233015994255e-01	-8.269077299722922e-18
7.879416644573212e-02	+2.368263967408401e-03	-2.719900158227071e-01	+2.631122693169871e-18
8.012155443429947e-02	+9.146077622538560e-03	-2.727384880716298e-01	+1.346154950086591e-17
8.144894242286682e-02	+1.595973252407601e-02	-2.732663217469646e-01	+1.886963327424255e-18
8.277633041143417e-02	+2.282093449994727e-02	-2.731161493799653e-01	-9.426344918321642e-18
8.410371094942093e-02	+2.966197332203199e-02	-2.739683958043529e-01	+1.437379317337856e-17
8.543302863836288e-02	+3.657169975499403e-02	-2.742242483639616e-01	+1.118012310121465e-18
8.676233887672424e-02	+4.346930375650961e-02	-2.730320690098229e-01	+2.733301059994001e-18
8.809164911508560e-02	+5.040106660113683e-02	-2.733109766301459e-01	+1.884074149079444e-18
8.942095935344696e-02	+5.743636176026494e-02	-2.738845673727828e-01	+2.360294167553707e-18
9.075027704238892e-02	+6.432434439936981e-02	-2.723892144333942e-01	+2.317552604411293e-18
9.207958728075027e-02	+7.128204918644208e-02	-2.715160542743796e-01	+1.294750733255548e-18
9.340889751911163e-02	+7.805221210266315e-02	-2.695429757668796e-01	+1.901720190782018e-18
9.473821520805359e-02	+8.500055867371292e-02	-2.686660519676267e-01	+1.569197994254609e-18
9.606752544641495e-02	+9.198105790494704e-02	-2.675329707897587e-01	+9.866395233999548e-19
9.739683568477631e-02	+9.885010435592183e-02	-2.658621369074425e-01	+2.505119073143854e-18
9.872615337371826e-02	+1.055196683369327e-01	-2.634954382612456e-01	+3.411535832319394e-18
1.000554636120796e-01	+1.123196150529145e-01	-2.614886459718690e-01	-9.063910750832908e-18
1.013847738504410e-01	+1.192045287527313e-01	-2.597151971378518e-01	-4.239510534440544e-19
1.027140840888023e-01	+1.260399639153534e-01	-2.576260044606782e-01	+1.366596770171381e-17
1.040434017777443e-01	+1.323810008190290e-01	-2.542355938259973e-01	+4.602367126880491e-18
1.053746864199638e-01	+1.390614190356120e-01	-2.515238795047987e-01	-1.196276421965083e-17
1.067059785127640e-01	+1.465011868937379e-01	-2.506941672992852e-01	+1.433802874197325e-17
1.080372631549835e-01	+1.518697477124419e-01	-2.450958765810722e-01	+2.860881893607472e-18
1.093685477972031e-01	+1.593495312330319e-01	-2.439267852389181e-01	+2.107460880879638e-18
1.106998398900032e-01	+1.648953309489971e-01	-2.388946691751118e-01	+2.753684012579309e-18
1.120311245322227e-01	+1.706397382936380e-01	-2.343541948165338e-01	-3.581960360400564e-19
1.133624166250229e-01	+1.769833407988552e-01	-2.308672361427749e-01	-9.500034213453013e-18
1.146937012672424e-01	+1.831998680933126e-01	-2.271211483699249e-01	+1.260941320763481e-17
1.160249859094620e-01	+1.891695409524908e-01	-2.229592963268556e-01	+2.498209088602200e-18
1.173562780022621e-01	+1.947751284124443e-01	-2.182637662007735e-01	+1.301502672806346e-18
1.186875626444817e-01	+1.982067957196997e-01	-2.107019386828342e-01	-9.633826820920368e-18
1.200188547372818e-01	+2.080244890571377e-01	-2.114752629923224e-01	+1.483681978360378e-17
1.213501393795013e-01	+2.109171836591712e-01	-2.034191817624090e-01	+1.865174312037605e-18
1.226814240217209e-01	+2.154933520615752e-01	-1.975529518641731e-01	+1.834780894047224e-18
1.240127161145210e-01	+2.221048388114757e-01	-1.940011855269740e-01	+3.287422843751527e-18
1.253440082073212e-01	+2.277604871193802e-01	-1.892121104452694e-01	-9.644134505266172e-18
1.266752928495407e-01	+2.338351144028713e-01	-1.848917651900871e-01	+1.389305486308503e-18
1.280065774917603e-01	+2.388507859708741e-01	-1.794370342110364e-01	+1.379943703614732e-17
1.293378621339798e-01	+2.419993578202092e-01	-1.722236259455133e-01	+1.985634957074591e-18
1.306691467761993e-01	+2.463433515996759e-01	-1.662347180044765e-01	+2.608014137776264e-18
1.320004463195801e-01	+2.510725508741986e-01	-1.605399406948569e-01	+2.529494730616283e-18
1.333317309617996e-01	+2.564424566067498e-01	-1.552981434380687e-01	+1.525029203064511e-18
1.346630156040192e-01	+2.606700739282731e-01	-1.491594953878080e-01	+2.571605112966014e-18
1.359943002462387e-01	+2.638718520285241e-01	-1.422691347443281e-01	+2.687356504467608e-18
1.373255848884583e-01	+2.677038462359209e-01	-1.358764750031658e-01	+1.084103210699259e-18
1.386568844318390e-01	+2.713262808454783e-01	-1.293340780252238e-01	+3.274545088336372e-18
1.399881690740585e-01	+2.751920193724305e-01	-1.229221553143487e-01	+2.921879178451164e-18
1.413194537162781e-01	+2.793915185473849e-01	-1.166840352252612e-01	+2.645698890094830e-18
1.426507383584976e-01	+2.816015013028756e-01	-1.093242885504794e-01	-1.108249680497354e-17
1.439820230007172e-01	+2.855004024288335e-01	-1.028918594244372e-01	+1.462612484911790e-17
1.453133225440979e-01	+2.871878396610957e-01	-9.533286994190669e-02	-1.098448945307935e-17
1.466446071863174e-01	+2.905659240167734e-01	-8.860764005953470e-02	+1.386629001867358e-17
1.479758918285370e-01	+2.931245012848254e-01	-8.149152969927578e-02	+1.787867723966065e-18
1.493071764707565e-01	+2.955985251367593e-01	-7.433791050414264e-02	+3.562905757535902e-18
1.506384611129761e-01	+2.977201126685599e-01	-6.705481927133780e-02	-8.692841191796884e-19
1.519697606563568e-01	+2.995903443743068e-01	-5.968534957047316e-02	+2.618479764653975e-18
1.533010452985764e-01	+3.019855518303416e-01	-5.248346740888065e-02	-8.644725172131496e-18
1.546323299407959e-01	+3.024467073663963e-01	-4.470546437253727e-02	+1.280048075318948e-17
1.559636145830154e-01	+3.052335533359122e-01	-3.756902011708972e-02	-9.014964357454081e-18
1.572949141263962e-01	+3.052256425807892e-01	-2.973918530739253e-02	+1.298036168384541e-17
1.586261987686157e-01	+3.068474100075561e-01	-2.229761537992827e-02	-1.002065390049741e-17
1.599574834108353e-01	+3.077989934103959e-01	-1.469435067386885e-02	+2.448442746797543e-18
1.612887680530548e-01	+3.091239565803640e-01	-7.155061805006808e-03	+1.415626701213649e-17
1.626200526952744e-01	+3.091130793305128e-01	+5.778454375900896e-04	+4.368720524107319e-18
1.639513522386551e-01	+3.090174685066225e-01	+8.294691347206848e-03	+2.163072399423674e-18
1.652826368808746e-01	+3.090901381364535e-01	+1.598692623916621e-02	-9.734152512729412e-18
1.666139215230942e-01	+3.092352703637992e-01	+2.367919012057085e-02	+1.269299992167932e-17
1.679430902004242e-01	+3.090091714428090e-01	+3.137781410798775e-02	+1.519614156974587e-18
1.692722439765930e-01	+3.085670685638275e-01	+3.907589836965737e-02	+3.331892864203091e-18
1.705992966890335e-01	+3.077855875793165e-01	+4.675608115027072e-02	+1.842440434203348e-18
1.719263345003128e-01	+3.144595006483668e-01	+5.495147086149531e-02	+2.285030676846667e-18
1.732512563467026e-01	+3.045177595603935e-01	+6.195340166375035e-02	-9.926170980369088e-18
1.745761632919312e-01	+3.047683587996910e-01	+6.972283404055515e-02	+1.273517835807404e-17
1.759010851383209e-01	+3.035830288265558e-01	+7.736395087082648e-02	+2.985522557164845e-18
1.772238761186600e-01	+3.014153720761477e-01	+8.484216214712964e-02	-1.059039622166941e-17
1.785466670989990e-01	+2.993566023512313e-01	+9.231728007178422e-02	+1.416219262948581e-17
1.798673272132874e-01	+2.977598298321866e-01	+9.987315231984961e-02	+1.845325272186053e-18
1.811880022287369e-01	+2.954498942528418e-01	+1.072767989793783e-01	+3.081940137904949e-18
1.825065314769745e-01	+2.883523974014190e-01	+1.133545127661783e-01	+1.878018915826394e-18
1.838250756263733e-01	+2.932631000378133e-01	+1.227864862481075e-01	-9.154683548971259e-18
1.851414889097214e-01	+2.862497946576156e-01	+1.287103366113256e-01	+1.370944328784773e-17
1.864578872919083e-01	+2.821177453174575e-01	+1.354242138638317e-01	-7.935873678473075e-18
1.877721846103668e-01	+2.804390126210459e-01	+1.430024420954859e-01	+1.341148315593231e-17
1.890864670276642e-01	+2.791557107274212e-01	+1.508235094466167e-01	+3.629401410916939e-18
1.903986185789108e-01	+2.765488326355023e-01	+1.581639317318204e-01	-9.437005108350319e-18
1.917107850313187e-01	+2.720022194577690e-01	+1.646381580967739e-01	+9.860517037292950e-19
1.930229365825653e-01	+2.672763630811671e-01	+1.709952661362877e-01	+1.445454696911489e-17
1.943329721689224e-01	+2.626828159268697e-01	+1.773241271432787e-01	+1.499594285662887e-18
1.956429928541183e-01	+2.590683339195665e-01	+1.841965434774040e-01	+1.728638278757190e-18
1.969508826732635e-01	+2.558945979941807e-01	+1.913297344924773e-01	+3.005623307321567e-18
1.982587873935699e-01	+2.512670462885177e-01	+1.976329152390059e-01	+1.533628910759176e-18
1.995645612478256e-01	+2.467141091202553e-01	+2.039739398946078e-01	-8.915339931751506e-18
2.008703202009201e-01	+2.419317750461493e-01	+2.101444111277263e-01	+4.743493471666629e-19
2.021739631891251e-01	+2.367596476355225e-01	+2.160255219173907e-01	+1.512807903707985e-17
2.034775912761688e-01	+2.316488799831519e-01	+2.219339758311702e-01	+2.878212337775779e-18
2.047812342643738e-01	+2.265302531658378e-01	+2.278337815097111e-01	+1.804335559212840e-18
2.060827314853668e-01	+2.213578673871720e-01	+2.336759339477545e-01	+2.280236360193890e-18
2.073842436075211e-01	+2.158260142464860e-01	+2.392239045770091e-01	+1.471737045856271e-18
2.086836099624634e-01	+2.102751530413988e-01	+2.447356365321333e-01	+1.380400596621607e-18
2.099829763174057e-01	+2.040281987684002e-01	+2.495714851636020e-01	+2.198163674703708e-18
2.112802118062973e-01	+1.992746228348827e-01	+2.558654050578419e-01	+3.010078016108623e-18
2.125774621963501e-01	+1.925295469836517e-01	+2.601658575893168e-01	-1.150494531829146e-17
2.138725519180298e-01	+1.868036410651225e-01	+2.654711824712310e-01	+1.521349389385211e-17
2.151676565408707e-01	+1.796667882102064e-01	+2.692099620088810e-01	+3.489008616235264e-18
2.164606302976608e-01	+1.735662412281381e-01	+2.740576196358769e-01	-1.228681276063007e-17
2.177536040544510e-01	+1.680120500796462e-01	+2.796795615606565e-01	+1.371695866635648e-17
2.190444320440292e-01	+1.609048339226508e-01	+2.833156731967680e-01	+1.026220569623708e-18
2.203352749347687e-01	+1.546974406131411e-01	+2.880859014659476e-01	-7.607288852451293e-18
2.216239720582962e-01	+1.476417991492431e-01	+2.917039859610061e-01	+1.199041222112438e-17
2.229126691818237e-01	+1.406559097881747e-01	+2.953517543070245e-01	+2.471885882972449e-18
2.241992503404617e-01	+1.335973389855245e-01	+2.988449842476512e-01	+1.872167814279198e-18
2.254858165979385e-01	+1.265528018138040e-01	+3.023788836360437e-01	+1.704113903691105e-18
2.267723828554153e-01	+1.198519001982005e-01	+3.064757720537418e-01	+3.615841228050490e-18
2.280568182468414e-01	+1.121143596674841e-01	+3.087133084956582e-01	+5.024701316637448e-19
2.293412387371063e-01	+1.053342401945621e-01	+3.127371019442041e-01	+3.083821218516258e-18
2.306235432624817e-01	+9.747527400473857e-02	+3.144993905060549e-01	+2.955137762346961e-19
2.319058328866959e-01	+9.124803100915937e-02	+3.201339182816140e-01	+2.580148644989870e-18
2.331859916448593e-01	+8.266709473465594e-02	+3.198702181956986e-01	+1.478752287798964e-18
2.344661504030228e-01	+7.591958617916218e-02	+3.245596173373782e-01	+1.418418702893914e-18
2.357441633939743e-01	+6.686733635522271e-02	+3.223483542330259e-01	+2.646342065065788e-18
2.370221912860870e-01	+6.068224960232298e-02	+3.291547635173785e-01	+2.391040203354701e-18
2.382980734109879e-01	+5.259032887872087e-02	+3.297635350953327e-01	+1.298187996450230e-18
2.395739555358887e-01	+4.431158151652859e-02	+3.293860322204649e-01	+3.836724738406981e-18
2.408476918935776e-01	+3.645832511750277e-02	+3.304633156084958e-01	+1.982063498724166e-18
2.421214431524277e-01	+2.875494615758108e-02	+3.322587029096430e-01	+2.681880604231736e-18
2.433951795101166e-01	+2.096753106992464e-02	+3.337583695458562e-01	+2.953246370950978e-19
2.446667850017548e-01	+1.238367980413372e-02	+3.298509671721813e-01	+4.451939252052731e-19
2.459383904933929e-01	+5.431852781732679e-03	+3.376495948713063e-01	+1.616399724448347e-18
2.472078651189804e-01	-2.984464469796662e-03	+3.336409589486996e-01	+2.655090984330347e-18
2.484773248434067e-01	-1.097445398337139e-02	+3.328840595791726e-01	+3.362315473337317e-18
2.497446537017822e-01	-1.876464782128941e-02	+3.347600492969034e-01	+1.407051315995903e-18
2.510119676589966e-01	-2.665393189533237e-02	+3.365027075909093e-01	+1.799262019400356e-18
2.522771656513214e-01	-3.461986233874895e-02	+3.368480949769905e-01	+5.499209837890656e-19
2.535423338413239e-01	-4.259608158265678e-02	+3.357416924034671e-01	+3.893850512241014e-18
2.548053860664368e-01	-5.049957876312986e-02	+3.341347794690243e-01	-3.051161807510327e-20
2.560684084892273e-01	-5.839577682349854e-02	+3.327699780290884e-01	+2.439087247406538e-18
2.573314607143402e-01	-6.631627574279350e-02	+3.320237221395144e-01	+1.190694554098670e-18
2.585923671722412e-01	-7.418867033626630e-02	+3.308338246312348e-01	+2.431806662541099e-18
2.598532438278198e-01	-8.209456303394860e-02	+3.297243538190255e-01	+3.053055993403585e-18
2.611120045185089e-01	-8.995473270930536e-02	+3.283846416137051e-01	+1.678799298827447e-18
2.623707652091980e-01	-9.772846990894482e-02	+3.264460522448951e-01	-3.025847167454225e-19
2.636295258998871e-01	-1.054411096521133e-01	+3.243052916798473e-01	+3.689321042756055e-18
2.648861110210419e-01	-1.131314951312296e-01	+3.220755929164814e-01	-5.332860633528375e-19
2.661427259445190e-01	-1.207682267300555e-01	+3.196991055992098e-01	+3.888569837797370e-18
2.673993408679962e-01	-1.283261867222262e-01	+3.170058041667990e-01	-9.130343891272694e-18
2.686537802219391e-01	-1.358225923214596e-01	+3.141901408618881e-01	+1.371730516253217e-17
2.699082493782043e-01	-1.432451115220966e-01	+3.111476577087178e-01	+2.264825573782194e-18
2.711626887321472e-01	-1.506308970059828e-01	+3.080407045210202e-01	+3.678378234881988e-18
2.724171280860901e-01	-1.578893058435627e-01	+3.046124018576202e-01	+6.682092673381728e-19
2.736694216728210e-01	-1.651064238932822e-01	+3.011231964300621e-01	+3.185696984201546e-18
2.749217152595520e-01	-1.722512461882972e-01	+2.974818524090720e-01	+3.474590579398554e-18
2.761740088462830e-01	-1.789312732915759e-01	+2.928423353348191e-01	+2.456360530712856e-18
2.774263322353363e-01	-1.862407875128907e-01	+2.895583396019612e-01	+1.728789328286680e-18
2.786764502525330e-01	-1.933906079599381e-01	+2.859736801848013e-01	+1.560135889358859e-18
2.799265682697296e-01	-2.000130591257152e-01	+2.813568868753064e-01	+2.533944430387288e-18
2.811766862869263e-01	-2.063481306284529e-01	+2.762986708904350e-01	+1.247728388777993e-18
2.824268341064453e-01	-2.126297781047292e-01	+2.712188113572146e-01	+3.069546336168052e-18
2.836769521236420e-01	-2.189693339284778e-01	+2.662752851464635e-01	+6.621954264037964e-20
2.849270701408386e-01	-2.252746101414250e-01	+2.612930614883519e-01	-9.133959468302469e-18
2.861772179603577e-01	-2.315135982265208e-01	+2.562436434068208e-01	+3.430467167980623e-18
2.874273359775543e-01	-2.375338915651138e-01	+2.509024723432292e-01	+1.303691609104069e-18
2.886774539947510e-01	-2.433247737829559e-01	+2.452911572062117e-01	+2.535717304654641e-18
2.899276018142700e-01	-2.489207071602834e-01	+2.394745033390798e-01	+1.449674243011449e-17
2.911777198314667e-01	-2.539393517003488e-01	+2.330378360098705e-01	+1.955636854470476e-18
2.924278378486633e-01	-2.593015939773854e-01	+2.270475253653323e-01	+1.642702956995761e-18
2.936779856681824e-01	-2.649604996234697e-01	+2.213885562610493e-01	+2.550844109775432e-18
2.949281036853790e-01	-2.702465841836776e-01	+2.153410657910297e-01	+4.037383159069006e-18
2.961782217025757e-01	-2.755678126781493e-01	+2.093443100503135e-01	+1.731803281001303e-18
2.974283695220947e-01	-2.800702825023619e-01	+2.025867873061886e-01	+4.934916413258630e-18
2.986784875392914e-01	-2.841127180302607e-01	+1.954931449536663e-01	+5.245945567108827e-19
2.999286055564880e-01	-2.883860980178601e-01	+1.886452160358556e-01	+1.163689474474665e-18
3.011787533760071e-01	-2.926299561426481e-01	+1.818340731632372e-01	+2.213897049245459e-18
3.024311065673828e-01	-2.966499822424762e-01	+1.748500545632767e-01	+2.362698469851392e-18
3.036834895610809e-01	-3.004800198475809e-01	+1.677652221702446e-01	+2.224286145160688e-18
3.049358427524567e-01	-3.040667158841645e-01	+1.605477938659450e-01	+1.281950756136104e-18
3.061882257461548e-01	-3.075104540603769e-01	+1.532814831067213e-01	-1.039999489443953e-17
3.074428439140320e-01	-3.106434410396230e-01	+1.458409299269060e-01	+1.393504308013349e-17
3.086974620819092e-01	-3.137057072917996e-01	+1.383974785827408e-01	+1.264977071920237e-18
3.099521100521088e-01	-3.166632695727083e-01	+1.309361282829371e-01	+2.670508903620472e-18
3.112090229988098e-01	-3.198031970004433e-01	+1.235800306298090e-01	-8.466322554756493e-18
3.124659359455109e-01	-3.219137752758079e-01	+1.157388484070214e-01	+1.543464382435720e-17
3.137228488922119e-01	-3.240380508495028e-01	+1.079592943376378e-01	+9.110043523394774e-19
3.149820864200592e-01	-3.254806184912126e-01	+9.992192814907883e-02	+2.111867267324235e-18
3.162413239479065e-01	-3.276740673069139e-01	+9.225459123756465e-02	+2.028822521542141e-18
3.175028562545776e-01	-3.295039348777898e-01	+8.445634803277628e-02	+4.228684511068632e-18
3.187644183635712e-01	-3.311699757418915e-01	+7.663129324351482e-02	-1.022001175602103e-17
3.200283050537109e-01	-3.325052981069808e-01	+6.871393359226237e-02	+1.474553427910022e-17
3.212921917438507e-01	-3.336664714037884e-01	+6.077591555891488e-02	+3.578460678955537e-18
3.225584328174591e-01	-3.343165654973024e-01	+5.273495755577951e-02	+2.273474649920444e-18
3.238246738910675e-01	-3.392487413612832e-01	+4.576656765383223e-02	+1.533578929731280e-18
3.250932991504669e-01	-3.341621245258017e-01	+3.645587424584821e-02	-1.145456909422250e-17
3.263619244098663e-01	-3.357724745964290e-01	+2.872865354717032e-02	+1.462735266208527e-17
3.276329338550568e-01	-3.356568363637299e-01	+2.068416997908206e-02	-3.244254937297839e-19
3.289039433002472e-01	-3.352063331656975e-01	+1.263828812227091e-02	+3.069532540985398e-18
3.301773667335510e-01	-3.346376219203288e-01	+4.620494743658025e-03	+4.120809726820610e-18
3.314507901668549e-01	-3.341033604549059e-01	-3.341210866619517e-03	+2.449116570742809e-18
3.327266573905945e-01	-3.334215200028799e-01	-1.128554666996882e-02	+1.570087725292891e-18
3.340049684047699e-01	-3.324321492460260e-01	-1.921969162274996e-02	+2.595139711156023e-18
3.352832496166229e-01	-3.312057477936537e-01	-2.711386028884016e-02	+1.913571971173730e-18
3.365640342235565e-01	-3.293668969811292e-01	-3.498517890654904e-02	-1.643501989866618e-17
3.378447890281677e-01	-3.095513679850712e-01	-4.342888999334860e-02	+1.863561271776773e-17
3.391280472278595e-01	-3.109517061319711e-01	-5.025128674416311e-02	-1.053920471401632e-17
3.404137790203094e-01	-3.032781513117020e-01	-5.721736699123192e-02	+1.522491405387915e-17
3.417045474052429e-01	-2.970663014660658e-01	-6.386292975455042e-02	-1.163942134121581e-17
3.429978787899017e-01	-2.904080334025979e-01	-7.015794617081589e-02	+1.574450014318506e-17
3.442962765693665e-01	-2.812676254420560e-01	-7.577451037344918e-02	-1.059612530513349e-17
3.455998897552490e-01	-2.731974724215247e-01	-8.119016956780487e-02	+1.415231017271769e-17
3.469113111495972e-01	-2.657371249153293e-01	-8.636384599853905e-02	-1.003666298900890e-17
3.482306599617004e-01	-2.575150167791365e-01	-9.104482035794136e-02	+2.390782950667679e-18
3.495581150054932e-01	-2.479033115313745e-01	-9.505160100563907e-02	+2.319036610499211e-18
3.508937060832977e-01	-2.374162064768843e-01	-9.839992414125642e-02	+8.089524784152871e-19
3.522404134273529e-01	-2.269985263292808e-01	-1.013029261254789e-01	-2.531929747568189e-18
3.535983860492706e-01	-2.165324557590074e-01	-1.037119202905271e-01	+1.847206837059656e-17
3.549707829952240e-01	-2.055802995361247e-01	-1.055173231037144e-01	+2.977104507126033e-18
3.563579618930817e-01	-1.940078663560392e-01	-1.065333255923178e-01	+1.235047539772970e-18
3.577602207660675e-01	-1.797113350947204e-01	-1.059106553991581e-01	+2.134741913807842e-18
3.591655492782593e-01	-1.718937986936205e-01	-1.072900591133860e-01	-9.617096208919121e-18
3.605771064758301e-01	-1.619263569947513e-01	-1.072461239167110e-01	+4.427236757202363e-19
3.619917333126068e-01	-1.485064173735678e-01	-1.049948869907174e-01	+3.003712445673810e-18
3.634095489978790e-01	-1.332336356228268e-01	-1.010151289168679e-01	+1.199155492551170e-17
3.648336827754974e-01	-1.212610709311332e-01	-9.797642643505540e-02	+2.639557580184145e-18
3.662610352039337e-01	-1.118669674560307e-01	-9.553515408776521e-02	+1.372298359576622e-17
3.676948249340057e-01	-9.765166277488045e-02	-8.971138120621723e-02	-9.227800584117141e-18
3.691318631172180e-01	-8.672924237686895e-02	-8.496349845689920e-02	-2.896425826686309e-19
3.705755174160004e-01	-7.315924220865562e-02	-7.764005333159606e-02	+2.733277462422919e-18
3.720224499702454e-01	-6.145949010266204e-02	-7.067212085098348e-02	+2.888647766885212e-18
3.734727501869202e-01	-5.030802965392839e-02	-6.320130434662093e-02	-1.106970908849431e-17
3.749297857284546e-01	-3.923914657753284e-02	-5.488684462886703e-02	+1.280473752219432e-17
3.763902485370636e-01	-2.713497923420249e-02	-4.496262041539389e-02	+3.765980099562800e-19
3.778541088104248e-01	-1.590062463580064e-02	-3.458481486974947e-02	+7.867297359118333e-18
3.793249130249023e-01	-6.161240549644774e-03	-2.431279747665575e-02	-6.192815475600565e-18
3.807992041110992e-01	+4.105037954477829e-03	-1.265508767076843e-02	+2.511312476767816e-18
3.822770118713379e-01	+1.537868440304494e-02	+1.179793976200388e-03	-1.017220019543133e-17
3.837583661079407e-01	+2.199362759959523e-02	+1.168932839951613e-02	+1.244270960956406e-17
3.852468729019165e-01	+3.019207690533397e-02	+2.495928191694311e-02	+2.933982768502810e-18
3.867317736148834e-01	+3.846673692190812e-02	+3.941141995935316e-02	-1.056547308428204e-17
3.882130980491638e-01	+4.576991113968443e-02	+5.419379285566596e-02	+1.326502097448459e-17
3.896908462047577e-01	+5.272884489842889e-02	+6.998468015401271e-02	+1.270984852739384e-17
3.911650180816650e-01	+5.864905585771304e-02	+8.579720287644378e-02	-1.965639089593322e-17
3.926356434822083e-01	+6.294811398919659e-02	+1.008411573963979e-01	+1.472149102008087e-17
3.941026926040649e-01	+6.699702335376807e-02	+1.168923580243634e-01	+1.296600077917663e-17
3.955662250518799e-01	+7.029908284611289e-02	+1.333211217003971e-01	-2.080400822319989e-17
3.970262110233307e-01	+7.279085586863591e-02	+1.499839723677524e-01	+1.501416842370163e-17
3.984826505184174e-01	+7.420892300885903e-02	+1.665965288317663e-01	+9.351763354702490e-19
3.999391198158264e-01	+7.331417514918512e-02	+1.807438792307275e-01	+2.280446553275829e-18
4.013920426368713e-01	+7.417255505385840e-02	+1.994837498245109e-01	-1.472578414675774e-17
4.028449952602386e-01	+7.462509480833485e-02	+2.193946893853630e-01	+1.714911281248143e-17
4.042944014072418e-01	+7.252096574927865e-02	+2.361479100709918e-01	-9.612424873003771e-18
4.057438075542450e-01	+6.895182570155028e-02	+2.515204883587001e-01	+2.776974042446585e-18
4.071932137012482e-01	+6.438406807332474e-02	+2.662499777941199e-01	+1.919404272767176e-17
4.086425900459290e-01	+5.964134644936872e-02	+2.822102087708350e-01	-1.633995883431975e-17